#Generated by cif2cell 1.2.44.  :  Failed to get author information, No journal information.

8 atoms
1 atom types

0.0 5.468730 xlo xhi
0.0 5.468730 ylo yhi
0.0 5.468730 zlo zhi
3.34863134495e-16 3.34863134495e-16 3.34863134495e-16 xy xz yz

Atoms

1 1   1.367182500000000   4.101547500000000   1.367182500000000 
2 1   0.000000000000000   0.000000000000000   2.734365000000000 
3 1   1.367182500000000   1.367182500000000   4.101547500000000 
4 1   0.000000000000000   2.734365000000000   0.000000000000000 
5 1   4.101547500000000   4.101547500000000   4.101547500000000 
6 1   2.734365000000000   0.000000000000000   0.000000000000000 
7 1   4.101547500000000   1.367182500000000   1.367182500000000 
8 1   2.734365000000000   2.734365000000000   2.734365000000000 
