LAMMPS data file via write_data, version 3 Mar 2020, timestep = 50

4 atoms
1 atom types

-8.8947546217355011e-08 3.6212620889475433e+00 xlo xhi
-8.8947546217355011e-08 3.6212620889475433e+00 ylo yhi
-8.8947546217355011e-08 3.6212620889475433e+00 zlo zhi
2.2173835675193265e-16 2.2173835675193265e-16 2.2173835675193265e-16 xy xz yz

Masses

1 63.546

Atoms # atomic

1 1 1.0371836255064762e-01 3.5392070312688988e+00 2.5349962997526967e-02 0 -1 0
2 1 3.5418517685228594e+00 1.7881837750255067e+00 1.8563474179706385e+00 -1 0 0
3 1 1.8493457842526804e+00 7.4221837803818386e-02 1.6940216105465304e+00 0 0 0
4 1 1.7476080846738136e+00 1.8409113559017454e+00 4.5542830590221801e-02 0 0 0

Velocities

1 -4.2915347380167734e+00 4.5174205252357060e+00 2.4288566621682981e+00
2 5.3594349259268839e+00 2.3060339019347342e+00 -5.0144085809498993e+00
3 -3.3863034483512187e+00 -4.8376523751677309e+00 5.8345215966175312e-01
4 2.3184032604411029e+00 -1.9858020520027122e+00 2.0020997591198593e+00
