#Generated by cif2cell 1.2.44.  :  Failed to get author information, No journal information.

2 atoms
1 atom types

0.0 2.840050 xlo xhi
0.0 2.840050 ylo yhi
0.0 2.840050 zlo zhi
1.73902907096e-16 1.73902907096e-16 1.73902907096e-16 xy xz yz

Atoms

1 1   0.000000000000000   0.000000000000000   0.000000000000000 
2 1   1.420025000000000   1.420025000000000   1.420025000000000 
