--------------------------------------------------------------------------
WARNING: Linux kernel CMA support was requested via the
btl_vader_single_copy_mechanism MCA variable, but CMA support is
not available due to restrictive ptrace settings.

The vader shared memory BTL will fall back on another single-copy
mechanism if one is available. This may result in lower performance.

  Local host: DESKTOP-12SE80T
--------------------------------------------------------------------------

     Program PWSCF v.6.4.1 starts on  7Nov2020 at 10:40: 5 

     This program is part of the open-source Quantum ESPRESSO suite
     for quantum simulation of materials; please cite
         "P. Giannozzi et al., J. Phys.:Condens. Matter 21 395502 (2009);
         "P. Giannozzi et al., J. Phys.:Condens. Matter 29 465901 (2017);
          URL http://www.quantum-espresso.org", 
     in publications or presentations arising from this work. More details at
     http://www.quantum-espresso.org/quote

     Parallel version (MPI), running on     2 processors

     MPI processes distributed on     1 nodes
     R & G space division:  proc/nbgrp/npool/nimage =       2
     Waiting for input...
     Reading input from standard input

     Current dimensions of program PWSCF are:
     Max number of different atomic species (ntypx) = 10
     Max number of k-points (npk) =  40000
     Max angular momentum in pseudopotentials (lmaxx) =  3
               file C.pbe-n-kjpaw_psl.1.0.0.UPF: wavefunction(s)  2S 2P renormalized

     Subspace diagonalization in iterative solution of the eigenvalue problem:
     a serial algorithm will be used

     Found symmetry operation: I + (  0.0000  0.5000 -0.5000)
     This is a supercell, fractional translations are disabled
     Message from routine setup:
     DEPRECATED: symmetry with ibrav=0, use correct ibrav instead

     Parallelization info
     --------------------
     sticks:   dense  smooth     PW     G-vecs:    dense   smooth      PW
     Min         592     288     88                15322     5220     918
     Max         593     289     89                15325     5223     921
     Sum        1185     577    177                30647    10443    1839



     bravais-lattice index     =            0
     lattice parameter (alat)  =       6.7533  a.u.
     unit-cell volume          =     308.0027 (a.u.)^3
     number of atoms/cell      =            8
     number of atomic types    =            1
     number of electrons       =        32.00
     number of Kohn-Sham states=           20
     kinetic-energy cutoff     =      40.0000  Ry
     charge density cutoff     =     326.0000  Ry
     convergence threshold     =      1.0E-06
     mixing beta               =       0.7000
     number of iterations used =            8  plain     mixing
     Exchange-correlation      = SLA PW PBX PBC ( 1  4  3  4 0 0)
     nstep                     =           50


     celldm(1)=   6.753333  celldm(2)=   0.000000  celldm(3)=   0.000000
     celldm(4)=   0.000000  celldm(5)=   0.000000  celldm(6)=   0.000000

     crystal axes: (cart. coord. in units of alat)
               a(1) = (   1.000000   0.000000   0.000000 )  
               a(2) = (   0.000000   1.000000   0.000000 )  
               a(3) = (   0.000000   0.000000   1.000000 )  

     reciprocal axes: (cart. coord. in units 2 pi/alat)
               b(1) = (  1.000000  0.000000  0.000000 )  
               b(2) = (  0.000000  1.000000  0.000000 )  
               b(3) = (  0.000000  0.000000  1.000000 )  


     PseudoPot. # 1 for C  read from file:
     ./potentials/C.pbe-n-kjpaw_psl.1.0.0.UPF
     MD5 check sum: 5f16ad9a65e90284d1d834d4ab3b0f7d
     Pseudo is Projector augmented-wave + core cor, Zval =  4.0
     Generated using "atomic" code by A. Dal Corso v.6.3
     Shape of augmentation charge: PSQ
     Using radial grid of 1073 points,  4 beta functions with: 
                l(1) =   0
                l(2) =   0
                l(3) =   1
                l(4) =   1
     Q(r) pseudized with 0 coefficients 


     atomic species   valence    mass     pseudopotential
        C              4.00    12.01060     C ( 1.00)

     Starting magnetic structure 
     atomic species   magnetization
        C            1.000

     24 Sym. Ops. (no inversion) found



   Cartesian axes

     site n.     atom                  positions (alat units)
         1           C   tau(   1) = (   0.2500000   0.7500000   0.2500000  )
         2           C   tau(   2) = (   0.0000000   0.0000000   0.5000000  )
         3           C   tau(   3) = (   0.2500000   0.2500000   0.7500000  )
         4           C   tau(   4) = (   0.0000000   0.5000000   0.0000000  )
         5           C   tau(   5) = (   0.7500000   0.7500000   0.7500000  )
         6           C   tau(   6) = (   0.5000000   0.0000000   0.0000000  )
         7           C   tau(   7) = (   0.7500000   0.2500000   0.2500000  )
         8           C   tau(   8) = (   0.5000000   0.5000000   0.5000000  )

     number of k points=    20  Methfessel-Paxton smearing, width (Ry)=  0.0200
                       cart. coord. in units 2pi/alat
        k(    1) = (   0.0625000   0.0625000   0.0625000), wk =   0.0156250
        k(    2) = (   0.0625000   0.0625000   0.1875000), wk =   0.0468750
        k(    3) = (   0.0625000   0.0625000   0.3125000), wk =   0.0468750
        k(    4) = (   0.0625000   0.0625000   0.4375000), wk =   0.0468750
        k(    5) = (   0.0625000   0.1875000   0.1875000), wk =   0.0468750
        k(    6) = (   0.0625000   0.1875000   0.3125000), wk =   0.0937500
        k(    7) = (   0.0625000   0.1875000   0.4375000), wk =   0.0937500
        k(    8) = (   0.0625000   0.3125000   0.3125000), wk =   0.0468750
        k(    9) = (   0.0625000   0.3125000   0.4375000), wk =   0.0937500
        k(   10) = (   0.0625000   0.4375000   0.4375000), wk =   0.0468750
        k(   11) = (   0.1875000   0.1875000   0.1875000), wk =   0.0156250
        k(   12) = (   0.1875000   0.1875000   0.3125000), wk =   0.0468750
        k(   13) = (   0.1875000   0.1875000   0.4375000), wk =   0.0468750
        k(   14) = (   0.1875000   0.3125000   0.3125000), wk =   0.0468750
        k(   15) = (   0.1875000   0.3125000   0.4375000), wk =   0.0937500
        k(   16) = (   0.1875000   0.4375000   0.4375000), wk =   0.0468750
        k(   17) = (   0.3125000   0.3125000   0.3125000), wk =   0.0156250
        k(   18) = (   0.3125000   0.3125000   0.4375000), wk =   0.0468750
        k(   19) = (   0.3125000   0.4375000   0.4375000), wk =   0.0468750
        k(   20) = (   0.4375000   0.4375000   0.4375000), wk =   0.0156250

     Dense  grid:    30647 G-vectors     FFT dimensions: (  40,  40,  40)

     Smooth grid:    10443 G-vectors     FFT dimensions: (  27,  27,  27)

     Estimated max dynamical RAM per process >      39.60 MB

     Estimated total dynamical RAM >      79.20 MB
     Generating pointlists ...
     new r_m :   0.1786 (alat units)  1.2063 (a.u.) for type    1

     Check: negative core charge=   -0.000015

     Initial potential from superposition of free atoms

     starting charge   31.99967, renormalised to   32.00000

     negative rho (up, down):  0.000E+00 3.605E-01
     Starting wfcs are   32 randomized atomic wfcs
     Checking if some PAW data can be deallocated... 

     total cpu time spent up to now is        3.9 secs

     Self-consistent Calculation

     iteration #  1     ecut=    40.00 Ry     beta= 0.70
     Davidson diagonalization with overlap
     ethr =  1.00E-02,  avg # of iterations =  2.2

     total cpu time spent up to now is        7.6 secs

     total energy              =    -146.42191682 Ry
     Harris-Foulkes estimate   =    -140.98019755 Ry
     estimated scf accuracy    <       1.73088406 Ry

     total magnetization       =     2.08 Bohr mag/cell
     absolute magnetization    =     2.08 Bohr mag/cell

     iteration #  2     ecut=    40.00 Ry     beta= 0.70
     Davidson diagonalization with overlap
     ethr =  5.41E-03,  avg # of iterations =  1.7

     total cpu time spent up to now is       10.8 secs

     total energy              =    -147.46131872 Ry
     Harris-Foulkes estimate   =    -146.95644352 Ry
     estimated scf accuracy    <       0.18972217 Ry

     total magnetization       =    -0.00 Bohr mag/cell
     absolute magnetization    =     0.04 Bohr mag/cell

     iteration #  3     ecut=    40.00 Ry     beta= 0.70
     Davidson diagonalization with overlap
     ethr =  5.93E-04,  avg # of iterations =  1.8

     total cpu time spent up to now is       13.6 secs

     total energy              =    -147.46588368 Ry
     Harris-Foulkes estimate   =    -147.46392603 Ry
     estimated scf accuracy    <       0.00081816 Ry

     total magnetization       =    -0.00 Bohr mag/cell
     absolute magnetization    =     0.01 Bohr mag/cell

     iteration #  4     ecut=    40.00 Ry     beta= 0.70
     Davidson diagonalization with overlap
     ethr =  2.56E-06,  avg # of iterations =  8.0

     total cpu time spent up to now is       19.5 secs

     total energy              =    -147.46617870 Ry
     Harris-Foulkes estimate   =    -147.46617549 Ry
     estimated scf accuracy    <       0.00002530 Ry

     total magnetization       =     0.00 Bohr mag/cell
     absolute magnetization    =     0.00 Bohr mag/cell

     iteration #  5     ecut=    40.00 Ry     beta= 0.70
     Davidson diagonalization with overlap
     ethr =  7.91E-08,  avg # of iterations =  2.0

     total cpu time spent up to now is       23.0 secs

     total energy              =    -147.46618296 Ry
     Harris-Foulkes estimate   =    -147.46618380 Ry
     estimated scf accuracy    <       0.00000244 Ry

     total magnetization       =    -0.00 Bohr mag/cell
     absolute magnetization    =     0.00 Bohr mag/cell

     iteration #  6     ecut=    40.00 Ry     beta= 0.70
     Davidson diagonalization with overlap
     ethr =  7.62E-09,  avg # of iterations =  1.6

     Magnetic moment per site:
     atom:    1    charge:    2.0180    magn:   -0.0000    constr:    0.0000
     atom:    2    charge:    2.0180    magn:    0.0000    constr:    0.0000
     atom:    3    charge:    2.0180    magn:   -0.0000    constr:    0.0000
     atom:    4    charge:    2.0180    magn:    0.0000    constr:    0.0000
     atom:    5    charge:    2.0180    magn:   -0.0000    constr:    0.0000
     atom:    6    charge:    2.0180    magn:    0.0000    constr:    0.0000
     atom:    7    charge:    2.0180    magn:   -0.0000    constr:    0.0000
     atom:    8    charge:    2.0180    magn:    0.0000    constr:    0.0000

     total cpu time spent up to now is       25.8 secs

     End of self-consistent calculation

 ------ SPIN UP ------------


          k = 0.0625 0.0625 0.0625 (  1327 PWs)   bands (ev):

    -8.0474  -0.4066  -0.4065  -0.4065   1.5658   1.5660   1.5660   6.6521
     6.6522   6.6522   7.0732   7.0732   7.0733  12.5168  13.0578  13.0578
    17.9605  17.9605  17.9605  18.7229

          k = 0.0625 0.0625 0.1875 (  1317 PWs)   bands (ev):

    -7.7606  -2.2242  -0.2063  -0.2062   1.6842   1.6843   3.6147   5.8346
     5.8347   6.8955   6.8956   6.9668   7.3509  11.4011  12.1411  12.7067
    17.7113  18.7334  18.7335  18.8831

          k = 0.0625 0.0625 0.3125 (  1310 PWs)   bands (ev):

    -7.1894  -3.8386   0.1454   0.1455   1.8287   1.8288   5.0315   5.0315
     5.6154   6.3407   6.3408   7.6270   7.8987  10.0891  10.9176  11.6555
    17.6810  18.5375  20.3606  20.3606

          k = 0.0625 0.0625 0.4375 (  1312 PWs)   bands (ev):

    -6.3387  -5.2171   0.4887   0.4888   1.8556   1.8557   4.6011   4.6012
     5.8483   5.8484   7.3571   8.7005   8.7282   8.7641   9.7272  10.2128
    17.8497  18.1599  22.4253  22.4253

          k = 0.0625 0.1875 0.1875 (  1312 PWs)   bands (ev):

    -7.4748  -1.9827  -1.9826  -0.0656   1.7198   3.5272   3.5273   4.8054
     6.2563   6.2564   7.2267   7.2268   7.5429  10.1664  11.4792  12.7317
    18.5491  18.6532  18.6532  19.6000

          k = 0.0625 0.1875 0.3125 (  1316 PWs)   bands (ev):

    -6.9056  -3.5764  -1.5191   0.0447   1.7324   3.1855   4.2646   5.0954
     5.5605   6.9192   7.1000   7.5929   7.9886   8.8335  10.3398  12.0870
    18.6936  19.4400  19.5196  20.3597

          k = 0.0625 0.1875 0.4375 (  1312 PWs)   bands (ev):

    -6.0587  -4.9437  -0.8902  -0.2531   1.9776   2.5693   4.3996   4.9284
     6.3523   6.9228   7.2583   7.5542   8.1057   9.1759   9.3140  10.8345
    18.8869  19.1901  21.1439  22.3683

          k = 0.0625 0.3125 0.3125 (  1314 PWs)   bands (ev):

    -6.3413  -3.0620  -3.0619  -0.5063   1.8651   4.2202   4.2202   4.2325
     6.3234   6.3235   7.5217   8.1868   8.1870   8.4291   9.2800  12.0020
    19.4431  20.4359  20.4359  20.6511

          k = 0.0625 0.3125 0.4375 (  1319 PWs)   bands (ev):

    -5.5029  -4.4027  -2.3210  -1.4150   2.4285   3.2644   4.7139   5.2009
     5.4669   6.2933   7.1834   8.1804   8.4810   8.6621   9.7699  11.1642
    20.4576  20.6042  20.7932  22.2542

          k = 0.0625 0.4375 0.4375 (  1314 PWs)   bands (ev):

    -4.6803  -3.6084  -3.6083  -2.5903   3.1558   4.1015   4.1015   5.1193
     5.3560   6.2139   6.2139   7.1422   9.6133   9.9371   9.9373  10.8926
    20.6063  21.5855  21.5856  21.6387

          k = 0.1875 0.1875 0.1875 (  1304 PWs)   bands (ev):

    -7.1900  -1.7574  -1.7572  -1.7572   3.0894   3.0894   3.0894   5.6697
     5.6699   5.6699   7.8038   7.8038   7.8039   8.8093  12.0425  12.0425
    18.6902  18.6902  18.6902  20.4046

          k = 0.1875 0.1875 0.3125 (  1317 PWs)   bands (ev):

    -6.6232  -3.3205  -1.3502  -1.3501   2.2630   2.2630   4.0893   5.6079
     5.6081   7.2611   7.4269   7.8863   7.8863   8.3154  11.0315  11.7476
    18.9568  19.6244  19.6244  20.1227

          k = 0.1875 0.1875 0.4375 (  1307 PWs)   bands (ev):

    -5.7806  -4.6732  -0.9299  -0.9297   1.5391   1.5391   5.0539   5.7681
     5.7683   6.1591   7.7109   7.7109   9.0503   9.0570   9.9872  10.6476
    19.3184  19.7279  21.2740  21.2741

          k = 0.1875 0.3125 0.3125 (  1311 PWs)   bands (ev):

    -6.0618  -2.8247  -2.8245  -1.1707   1.3205   2.8871   2.8871   5.9454
     6.0289   7.2615   7.2616   8.5460   8.5462   8.6481  10.4673  11.6573
    19.6670  19.9597  19.9597  20.9039

          k = 0.1875 0.3125 0.4375 (  1318 PWs)   bands (ev):

    -5.2291  -4.1402  -2.1394  -1.4374   1.1472   1.8210   3.7190   4.7742
     6.4429   6.9526   8.5361   8.7499   8.8805   9.5301   9.7332  10.9788
    20.3798  20.6524  20.7867  21.4774

          k = 0.1875 0.4375 0.4375 (  1316 PWs)   bands (ev):

    -4.4157  -3.3657  -3.3656  -2.4047   1.6190   2.5380   2.5380   3.5442
     7.1233   7.8493   7.8494   8.7080   9.7426  10.0057  10.0059  10.8446
    20.7993  21.5894  21.5896  21.7150

          k = 0.3125 0.3125 0.3125 (  1313 PWs)   bands (ev):

    -5.5072  -2.3909  -2.3907  -2.3907   1.5789   1.5789   1.5789   4.5875
     7.8357   7.8359   7.8359   9.0697   9.0697   9.0699  11.0620  11.0620
    20.0767  20.0768  20.0768  21.4274

          k = 0.3125 0.3125 0.4375 (  1320 PWs)   bands (ev):

    -4.6886  -3.6298  -1.9320  -1.9318   0.6592   0.6592   2.3006   3.3245
     8.1277   8.1279   9.3402   9.3402   9.5342   9.6586  10.3538  10.7215
    20.5866  21.0023  21.0024  21.0735

          k = 0.3125 0.4375 0.4375 (  1322 PWs)   bands (ev):

    -3.9009  -2.9199  -2.9198  -2.1885   0.4140   1.1274   1.1274   2.0796
     8.8235   9.2903   9.2903   9.9748   9.9831  10.1110  10.1112  10.7281
    21.1324  21.4124  21.4125  21.6840

          k = 0.4375 0.4375 0.4375 (  1343 PWs)   bands (ev):

    -3.1834  -2.4428  -2.4426  -2.4426   0.1539   0.1539   0.1539   0.8798
    10.0838  10.0841  10.0841  10.2575  10.2575  10.2577  10.5268  10.5268
    21.4802  21.4803  21.4803  21.6869

 ------ SPIN DOWN ----------


          k = 0.0625 0.0625 0.0625 (  1327 PWs)   bands (ev):

    -8.0480  -0.4071  -0.4070  -0.4070   1.5654   1.5655   1.5655   6.6516
     6.6517   6.6517   7.0727   7.0727   7.0728  12.5164  13.0574  13.0574
    17.9599  17.9599  17.9599  18.7222

          k = 0.0625 0.0625 0.1875 (  1317 PWs)   bands (ev):

    -7.7612  -2.2248  -0.2068  -0.2067   1.6837   1.6838   3.6142   5.8341
     5.8341   6.8950   6.8951   6.9663   7.3504  11.4007  12.1406  12.7063
    17.7107  18.7328  18.7328  18.8827

          k = 0.0625 0.0625 0.3125 (  1310 PWs)   bands (ev):

    -7.1899  -3.8391   0.1449   0.1450   1.8282   1.8283   5.0309   5.0310
     5.6150   6.3402   6.3402   7.6266   7.8983  10.0886  10.9171  11.6551
    17.6804  18.5370  20.3600  20.3600

          k = 0.0625 0.0625 0.4375 (  1312 PWs)   bands (ev):

    -6.3392  -5.2176   0.4882   0.4884   1.8552   1.8552   4.6006   4.6007
     5.8478   5.8478   7.3567   8.7001   8.7277   8.7636   9.7267  10.2123
    17.8491  18.1594  22.4247  22.4248

          k = 0.0625 0.1875 0.1875 (  1312 PWs)   bands (ev):

    -7.4753  -1.9832  -1.9831  -0.0661   1.7193   3.5267   3.5268   4.8048
     6.2558   6.2559   7.2262   7.2263   7.5424  10.1660  11.4788  12.7313
    18.5485  18.6526  18.6526  19.5996

          k = 0.0625 0.1875 0.3125 (  1316 PWs)   bands (ev):

    -6.9062  -3.5770  -1.5196   0.0443   1.7320   3.1850   4.2640   5.0949
     5.5600   6.9187   7.0995   7.5924   7.9881   8.8330  10.3393  12.0866
    18.6931  19.4394  19.5192  20.3592

          k = 0.0625 0.1875 0.4375 (  1312 PWs)   bands (ev):

    -6.0593  -4.9442  -0.8907  -0.2536   1.9771   2.5688   4.3990   4.9278
     6.3518   6.9223   7.2578   7.5537   8.1052   9.1755   9.3135  10.8340
    18.8864  19.1897  21.1433  22.3677

          k = 0.0625 0.3125 0.3125 (  1314 PWs)   bands (ev):

    -6.3418  -3.0625  -3.0624  -0.5067   1.8646   4.2197   4.2197   4.2320
     6.3229   6.3230   7.5212   8.1863   8.1865   8.4287   9.2796  12.0016
    19.4425  20.4354  20.4354  20.6507

          k = 0.0625 0.3125 0.4375 (  1319 PWs)   bands (ev):

    -5.5035  -4.4032  -2.3215  -1.4155   2.4280   3.2639   4.7134   5.2004
     5.4664   6.2928   7.1829   8.1799   8.4805   8.6616   9.7695  11.1638
    20.4571  20.6037  20.7928  22.2532

          k = 0.0625 0.4375 0.4375 (  1314 PWs)   bands (ev):

    -4.6808  -3.6090  -3.6088  -2.5908   3.1553   4.1010   4.1010   5.1188
     5.3555   6.2134   6.2134   7.1417   9.6129   9.9367   9.9369  10.8921
    20.6058  21.5850  21.5851  21.6383

          k = 0.1875 0.1875 0.1875 (  1304 PWs)   bands (ev):

    -7.1905  -1.7579  -1.7577  -1.7577   3.0889   3.0889   3.0889   5.6691
     5.6694   5.6694   7.8033   7.8033   7.8034   8.8089  12.0420  12.0420
    18.6896  18.6896  18.6896  20.4042

          k = 0.1875 0.1875 0.3125 (  1317 PWs)   bands (ev):

    -6.6237  -3.3210  -1.3507  -1.3506   2.2625   2.2625   4.0889   5.6074
     5.6076   7.2606   7.4264   7.8858   7.8858   8.3150  11.0311  11.7472
    18.9563  19.6238  19.6239  20.1223

          k = 0.1875 0.1875 0.4375 (  1307 PWs)   bands (ev):

    -5.7811  -4.6738  -0.9303  -0.9302   1.5385   1.5386   5.0535   5.7676
     5.7678   6.1586   7.7104   7.7104   9.0499   9.0565   9.9868  10.6472
    19.3179  19.7274  21.2735  21.2735

          k = 0.1875 0.3125 0.3125 (  1311 PWs)   bands (ev):

    -6.0623  -2.8252  -2.8251  -1.1712   1.3200   2.8866   2.8866   5.9449
     6.0285   7.2610   7.2611   8.5455   8.5457   8.6476  10.4669  11.6569
    19.6664  19.9592  19.9592  20.9036

          k = 0.1875 0.3125 0.4375 (  1318 PWs)   bands (ev):

    -5.2296  -4.1407  -2.1399  -1.4379   1.1466   1.8204   3.7185   4.7737
     6.4424   6.9521   8.5357   8.7494   8.8801   9.5296   9.7328  10.9784
    20.3793  20.6518  20.7863  21.4769

          k = 0.1875 0.4375 0.4375 (  1316 PWs)   bands (ev):

    -4.4162  -3.3662  -3.3661  -2.4052   1.6184   2.5375   2.5375   3.5437
     7.1228   7.8489   7.8489   8.7075   9.7422  10.0053  10.0055  10.8442
    20.7988  21.5889  21.5890  21.7145

          k = 0.3125 0.3125 0.3125 (  1313 PWs)   bands (ev):

    -5.5077  -2.3914  -2.3912  -2.3912   1.5783   1.5783   1.5783   4.5870
     7.8352   7.8355   7.8355   9.0693   9.0693   9.0694  11.0616  11.0616
    20.0762  20.0762  20.0762  21.4270

          k = 0.3125 0.3125 0.4375 (  1320 PWs)   bands (ev):

    -4.6891  -3.6303  -1.9325  -1.9323   0.6586   0.6587   2.3001   3.3240
     8.1273   8.1275   9.3398   9.3398   9.5338   9.6582  10.3533  10.7211
    20.5861  21.0018  21.0019  21.0731

          k = 0.3125 0.4375 0.4375 (  1322 PWs)   bands (ev):

    -3.9014  -2.9204  -2.9203  -2.1890   0.4134   1.1268   1.1268   2.0791
     8.8230   9.2898   9.2899   9.9744   9.9826  10.1106  10.1108  10.7277
    21.1319  21.4119  21.4120  21.6836

          k = 0.4375 0.4375 0.4375 (  1343 PWs)   bands (ev):

    -3.1839  -2.4433  -2.4430  -2.4430   0.1533   0.1533   0.1534   0.8793
    10.0834  10.0836  10.0836  10.2571  10.2571  10.2572  10.5263  10.5263
    21.4797  21.4798  21.4798  21.6865

     the Fermi energy is    15.0791 ev

!    total energy              =    -147.46618308 Ry
     Harris-Foulkes estimate   =    -147.46618319 Ry
     estimated scf accuracy    <       0.00000027 Ry

     total all-electron energy =      -609.578961 Ry

     The total energy is the sum of the following terms:

     one-electron contribution =      33.61356618 Ry
     hartree contribution      =       7.78522669 Ry
     xc contribution           =     -37.46454249 Ry
     ewald contribution        =    -102.09923477 Ry
     one-center paw contrib.   =     -49.30119870 Ry
     smearing contrib. (-TS)   =       0.00000000 Ry

     total magnetization       =     0.00 Bohr mag/cell
     absolute magnetization    =     0.00 Bohr mag/cell

     convergence has been achieved in   6 iterations

     Forces acting on atoms (cartesian axes, Ry/au):

     atom    1 type  1   force =    -0.00001488    0.00001488   -0.00001488
     atom    2 type  1   force =     0.00000000    0.00000000    0.00000000
     atom    3 type  1   force =    -0.00001488   -0.00001488    0.00001488
     atom    4 type  1   force =     0.00000000    0.00000000    0.00000000
     atom    5 type  1   force =     0.00001488    0.00001488    0.00001488
     atom    6 type  1   force =     0.00000000    0.00000000    0.00000000
     atom    7 type  1   force =     0.00001488   -0.00001488   -0.00001488
     atom    8 type  1   force =     0.00000000    0.00000000    0.00000000

     Total force =     0.000052     Total SCF correction =     0.000113
     SCF correction compared to forces is large: reduce conv_thr to get better values


     Computing stress (Cartesian axis) and pressure

          total   stress  (Ry/bohr**3)                   (kbar)     P=  -12.79
  -0.00008696   0.00000000   0.00000000        -12.79      0.00      0.00
   0.00000000  -0.00008696   0.00000000          0.00    -12.79      0.00
   0.00000000   0.00000000  -0.00008696          0.00      0.00    -12.79


     BFGS Geometry Optimization

     number of scf cycles    =   1
     number of bfgs steps    =   0

     enthalpy new            =    -147.4661830806 Ry

     new trust radius        =       0.0076307779 bohr
     new conv_thr            =       0.0000010000 Ry

     new unit-cell volume =    305.99826 a.u.^3 (    45.34426 Ang^3 )
     density =      3.51869 g/cm^3

CELL_PARAMETERS (alat=  6.75333318)
   0.997825990   0.000000000   0.000000000
   0.000000000   0.997825990   0.000000000
   0.000000000   0.000000000   0.997825990

ATOMIC_POSITIONS (crystal)
C        0.249997797   0.750002203   0.249997797
C        0.000000000   0.000000000   0.500000000
C        0.249997797   0.249997797   0.750002203
C        0.000000000   0.500000000   0.000000000
C        0.750002203   0.750002203   0.750002203
C        0.500000000   0.000000000   0.000000000
C        0.750002203   0.249997797   0.249997797
C        0.500000000   0.500000000   0.500000000



     Writing output data file pw.save/
     NEW-OLD atomic charge density approx. for the potential

     Check: negative core charge=   -0.000015
     extrapolated charge   31.79039, renormalised to   32.00000

     total cpu time spent up to now is       32.1 secs

     Self-consistent Calculation

     iteration #  1     ecut=    40.00 Ry     beta= 0.70
     Davidson diagonalization with overlap
     ethr =  1.00E-06,  avg # of iterations =  2.0

     total cpu time spent up to now is       36.3 secs

     total energy              =    -147.46599528 Ry
     Harris-Foulkes estimate   =    -147.31281500 Ry
     estimated scf accuracy    <       0.00007835 Ry

     total magnetization       =     0.00 Bohr mag/cell
     absolute magnetization    =     0.00 Bohr mag/cell

     iteration #  2     ecut=    40.00 Ry     beta= 0.70
     Davidson diagonalization with overlap
     ethr =  2.45E-07,  avg # of iterations =  3.0

     total cpu time spent up to now is       41.1 secs

     total energy              =    -147.46617075 Ry
     Harris-Foulkes estimate   =    -147.46619075 Ry
     estimated scf accuracy    <       0.00005632 Ry

     total magnetization       =    -0.00 Bohr mag/cell
     absolute magnetization    =     0.00 Bohr mag/cell

     iteration #  3     ecut=    40.00 Ry     beta= 0.70
     Davidson diagonalization with overlap
     ethr =  1.76E-07,  avg # of iterations =  1.0

     total cpu time spent up to now is       44.3 secs

     total energy              =    -147.46616375 Ry
     Harris-Foulkes estimate   =    -147.46617229 Ry
     estimated scf accuracy    <       0.00001480 Ry

     total magnetization       =     0.00 Bohr mag/cell
     absolute magnetization    =     0.00 Bohr mag/cell

     iteration #  4     ecut=    40.00 Ry     beta= 0.70
     Davidson diagonalization with overlap
     ethr =  4.62E-08,  avg # of iterations =  2.0

     Magnetic moment per site:
     atom:    1    charge:    2.0143    magn:   -0.0000    constr:    0.0000
     atom:    2    charge:    2.0143    magn:    0.0000    constr:    0.0000
     atom:    3    charge:    2.0143    magn:   -0.0000    constr:    0.0000
     atom:    4    charge:    2.0143    magn:    0.0000    constr:    0.0000
     atom:    5    charge:    2.0143    magn:   -0.0000    constr:    0.0000
     atom:    6    charge:    2.0143    magn:    0.0000    constr:    0.0000
     atom:    7    charge:    2.0143    magn:   -0.0000    constr:    0.0000
     atom:    8    charge:    2.0143    magn:    0.0000    constr:    0.0000

     total cpu time spent up to now is       48.3 secs

     End of self-consistent calculation

 ------ SPIN UP ------------


          k = 0.0626 0.0626 0.0626 (  1327 PWs)   bands (ev):

    -8.0174  -0.3400  -0.3400  -0.3399   1.6425   1.6425   1.6426   6.7274
     6.7274   6.7275   7.1512   7.1513   7.1513  12.6299  13.1733  13.1733
    18.0921  18.0923  18.0923  18.8566

          k = 0.0626 0.0626 0.1879 (  1317 PWs)   bands (ev):

    -7.7293  -2.1668  -0.1378  -0.1377   1.7626   1.7627   3.7017   5.9040
     5.9040   6.9722   6.9723   7.0438   7.4305  11.5086  12.2497  12.8219
    17.8437  18.8684  18.8685  19.0198

          k = 0.0626 0.0626 0.3132 (  1310 PWs)   bands (ev):

    -7.1554  -3.7890   0.2178   0.2178   1.9097   1.9097   5.0945   5.0945
     5.7114   6.4130   6.4130   7.7084   7.9814  10.1907  11.0181  11.7679
    17.8144  18.6737  20.5031  20.5032

          k = 0.0626 0.0626 0.4385 (  1312 PWs)   bands (ev):

    -6.3009  -5.1740   0.5661   0.5662   1.9363   1.9363   4.6615   4.6616
     5.9157   5.9157   7.4557   8.7878   8.8204   8.8621   9.8204  10.3181
    17.9841  18.2953  22.5743  22.5744

          k = 0.0626 0.1879 0.1879 (  1312 PWs)   bands (ev):

    -7.4421  -1.9235  -1.9235   0.0055   1.7985   3.6148   3.6148   4.8667
     6.3289   6.3289   7.3049   7.3050   7.6238  10.2687  11.5845  12.8456
    18.6824  18.7897  18.7898  19.7398

          k = 0.0626 0.1879 0.3132 (  1316 PWs)   bands (ev):

    -6.8704  -3.5253  -1.4565   0.1204   1.8072   3.2702   4.3233   5.1863
     5.6312   6.9940   7.1806   7.6739   8.0717   8.9303  10.4386  12.1983
    18.8317  19.5773  19.6607  20.5042

          k = 0.0626 0.1879 0.4385 (  1312 PWs)   bands (ev):

    -6.0196  -4.8992  -0.8223  -0.1787   2.0500   2.6472   4.4633   4.9972
     6.4427   6.9977   7.3365   7.6467   8.1929   9.2685   9.4088  10.9398
    19.0263  19.3307  21.2879  22.5157

          k = 0.0626 0.3132 0.3132 (  1314 PWs)   bands (ev):

    -6.3034  -3.0078  -3.0077  -0.4327   1.9343   4.2957   4.3036   4.3036
     6.4018   6.4019   7.6132   8.2715   8.2716   8.5155   9.3738  12.1115
    19.5805  20.5823  20.5824  20.7969

          k = 0.0626 0.3132 0.4385 (  1319 PWs)   bands (ev):

    -5.4610  -4.3554  -2.2620  -1.3492   2.4998   3.3410   4.7830   5.2848
     5.5412   6.3802   7.2667   8.2687   8.5676   8.7499   9.8663  11.2691
    20.6000  20.7521  20.9415  22.4194

          k = 0.0626 0.4385 0.4385 (  1314 PWs)   bands (ev):

    -4.6342  -3.5567  -3.5566  -2.5324   3.2297   4.1798   4.1798   5.2013
     5.4300   6.2926   6.2926   7.2256   9.7072  10.0335  10.0336  10.9949
    20.7517  21.7370  21.7371  21.7966

          k = 0.1879 0.1879 0.1879 (  1304 PWs)   bands (ev):

    -7.1560  -1.6962  -1.6962  -1.6962   3.1714   3.1714   3.1715   5.7406
     5.7406   5.7407   7.8862   7.8862   7.8862   8.9050  12.1512  12.1512
    18.8250  18.8252  18.8252  20.5499

          k = 0.1879 0.1879 0.3132 (  1317 PWs)   bands (ev):

    -6.5866  -3.2678  -1.2849  -1.2849   2.3342   2.3342   4.1695   5.6833
     5.6834   7.3472   7.5166   7.9687   7.9687   8.4008  11.1335  11.8568
    19.0944  19.7630  19.7631  20.2671

          k = 0.1879 0.1879 0.4385 (  1307 PWs)   bands (ev):

    -5.7400  -4.6273  -0.8586  -0.8585   1.6003   1.6004   5.1350   5.8478
     5.8479   6.2437   7.7912   7.7912   9.1467   9.1486  10.0826  10.7536
    19.4588  19.8707  21.4175  21.4177

          k = 0.1879 0.3132 0.3132 (  1311 PWs)   bands (ev):

    -6.0225  -2.7684  -2.7684  -1.1004   1.3791   2.9582   2.9582   6.0248
     6.1123   7.3495   7.3495   8.6326   8.6327   8.7358  10.5675  11.7645
    19.8056  20.1010  20.1011  21.0502

          k = 0.1879 0.3132 0.4385 (  1318 PWs)   bands (ev):

    -5.1857  -4.0912  -2.0776  -1.3682   1.2031   1.8839   3.7926   4.8521
     6.5260   7.0390   8.6284   8.8378   8.9696   9.6258   9.8296  11.0829
    20.5243  20.7953  20.9338  21.6193

          k = 0.1879 0.4385 0.4385 (  1316 PWs)   bands (ev):

    -4.3680  -3.3119  -3.3119  -2.3441   1.6798   2.6050   2.6050   3.6161
     7.2093   7.9385   7.9386   8.8005   9.8375  10.1027  10.1028  10.9468
    20.9455  21.7344  21.7345  21.8726

          k = 0.3132 0.3132 0.3132 (  1313 PWs)   bands (ev):

    -5.4651  -2.3303  -2.3303  -2.3302   1.6397   1.6398   1.6398   4.6640
     7.9267   7.9267   7.9268   9.1601   9.1601   9.1601  11.1653  11.1653
    20.2179  20.2181  20.2181  21.5754

          k = 0.3132 0.3132 0.4385 (  1320 PWs)   bands (ev):

    -4.6422  -3.5774  -1.8647  -1.8647   0.7106   0.7107   2.3659   3.3949
     8.2201   8.2202   9.4321   9.4321   9.6333   9.7527  10.4523  10.8247
    20.7313  21.1459  21.1460  21.2209

          k = 0.3132 0.4385 0.4385 (  1322 PWs)   bands (ev):

    -3.8497  -2.8617  -2.8616  -2.1223   0.4635   1.1846   1.1846   2.1433
     8.9177   9.3863   9.3863  10.0714  10.0811  10.2088  10.2090  10.8297
    21.2798  21.5561  21.5561  21.8308

          k = 0.4385 0.4385 0.4385 (  1343 PWs)   bands (ev):

    -3.1264  -2.3775  -2.3775  -2.3773   0.2014   0.2015   0.2015   0.9354
    10.1832  10.1832  10.1834  10.3561  10.3562  10.3562  10.6272  10.6272
    21.6273  21.6274  21.6274  21.8323

 ------ SPIN DOWN ----------


          k = 0.0626 0.0626 0.0626 (  1327 PWs)   bands (ev):

    -8.0174  -0.3400  -0.3400  -0.3399   1.6425   1.6425   1.6426   6.7274
     6.7274   6.7275   7.1512   7.1513   7.1513  12.6299  13.1733  13.1733
    18.0921  18.0923  18.0923  18.8565

          k = 0.0626 0.0626 0.1879 (  1317 PWs)   bands (ev):

    -7.7293  -2.1668  -0.1378  -0.1377   1.7626   1.7627   3.7017   5.9040
     5.9040   6.9722   6.9723   7.0438   7.4305  11.5086  12.2497  12.8219
    17.8437  18.8684  18.8685  19.0198

          k = 0.0626 0.0626 0.3132 (  1310 PWs)   bands (ev):

    -7.1554  -3.7890   0.2178   0.2178   1.9097   1.9097   5.0945   5.0945
     5.7114   6.4130   6.4130   7.7084   7.9814  10.1907  11.0181  11.7679
    17.8144  18.6737  20.5031  20.5032

          k = 0.0626 0.0626 0.4385 (  1312 PWs)   bands (ev):

    -6.3009  -5.1740   0.5661   0.5662   1.9363   1.9363   4.6615   4.6616
     5.9157   5.9157   7.4557   8.7878   8.8204   8.8621   9.8204  10.3181
    17.9841  18.2953  22.5743  22.5744

          k = 0.0626 0.1879 0.1879 (  1312 PWs)   bands (ev):

    -7.4421  -1.9235  -1.9235   0.0055   1.7985   3.6148   3.6148   4.8667
     6.3289   6.3289   7.3049   7.3050   7.6238  10.2687  11.5845  12.8456
    18.6824  18.7897  18.7898  19.7398

          k = 0.0626 0.1879 0.3132 (  1316 PWs)   bands (ev):

    -6.8704  -3.5253  -1.4565   0.1204   1.8072   3.2702   4.3233   5.1863
     5.6312   6.9940   7.1806   7.6739   8.0717   8.9303  10.4386  12.1983
    18.8317  19.5773  19.6607  20.5042

          k = 0.0626 0.1879 0.4385 (  1312 PWs)   bands (ev):

    -6.0196  -4.8992  -0.8223  -0.1787   2.0500   2.6472   4.4633   4.9972
     6.4427   6.9977   7.3365   7.6467   8.1929   9.2685   9.4088  10.9398
    19.0263  19.3307  21.2879  22.5157

          k = 0.0626 0.3132 0.3132 (  1314 PWs)   bands (ev):

    -6.3034  -3.0078  -3.0077  -0.4327   1.9343   4.2957   4.3036   4.3036
     6.4018   6.4019   7.6132   8.2715   8.2716   8.5155   9.3738  12.1115
    19.5805  20.5823  20.5824  20.7969

          k = 0.0626 0.3132 0.4385 (  1319 PWs)   bands (ev):

    -5.4610  -4.3554  -2.2620  -1.3492   2.4998   3.3410   4.7830   5.2848
     5.5412   6.3802   7.2667   8.2687   8.5676   8.7499   9.8663  11.2691
    20.6000  20.7521  20.9415  22.4185

          k = 0.0626 0.4385 0.4385 (  1314 PWs)   bands (ev):

    -4.6342  -3.5567  -3.5566  -2.5324   3.2297   4.1798   4.1798   5.2013
     5.4300   6.2926   6.2926   7.2256   9.7072  10.0335  10.0336  10.9949
    20.7517  21.7370  21.7371  21.7966

          k = 0.1879 0.1879 0.1879 (  1304 PWs)   bands (ev):

    -7.1560  -1.6962  -1.6962  -1.6962   3.1714   3.1714   3.1715   5.7406
     5.7406   5.7407   7.8862   7.8862   7.8862   8.9050  12.1512  12.1512
    18.8250  18.8252  18.8252  20.5499

          k = 0.1879 0.1879 0.3132 (  1317 PWs)   bands (ev):

    -6.5866  -3.2678  -1.2849  -1.2849   2.3342   2.3342   4.1695   5.6833
     5.6834   7.3472   7.5166   7.9687   7.9687   8.4008  11.1335  11.8568
    19.0944  19.7630  19.7631  20.2671

          k = 0.1879 0.1879 0.4385 (  1307 PWs)   bands (ev):

    -5.7400  -4.6273  -0.8586  -0.8585   1.6003   1.6004   5.1350   5.8478
     5.8479   6.2437   7.7912   7.7912   9.1467   9.1486  10.0826  10.7536
    19.4588  19.8707  21.4175  21.4177

          k = 0.1879 0.3132 0.3132 (  1311 PWs)   bands (ev):

    -6.0225  -2.7684  -2.7684  -1.1004   1.3791   2.9582   2.9582   6.0248
     6.1123   7.3495   7.3495   8.6326   8.6327   8.7358  10.5675  11.7645
    19.8056  20.1010  20.1011  21.0502

          k = 0.1879 0.3132 0.4385 (  1318 PWs)   bands (ev):

    -5.1857  -4.0912  -2.0776  -1.3682   1.2031   1.8839   3.7926   4.8521
     6.5260   7.0390   8.6284   8.8378   8.9696   9.6258   9.8296  11.0829
    20.5243  20.7953  20.9338  21.6193

          k = 0.1879 0.4385 0.4385 (  1316 PWs)   bands (ev):

    -4.3680  -3.3119  -3.3119  -2.3441   1.6798   2.6050   2.6050   3.6161
     7.2093   7.9385   7.9386   8.8005   9.8375  10.1027  10.1028  10.9468
    20.9455  21.7344  21.7345  21.8726

          k = 0.3132 0.3132 0.3132 (  1313 PWs)   bands (ev):

    -5.4651  -2.3303  -2.3303  -2.3302   1.6397   1.6398   1.6398   4.6640
     7.9267   7.9267   7.9268   9.1601   9.1601   9.1601  11.1653  11.1653
    20.2179  20.2181  20.2181  21.5754

          k = 0.3132 0.3132 0.4385 (  1320 PWs)   bands (ev):

    -4.6422  -3.5774  -1.8647  -1.8647   0.7106   0.7107   2.3659   3.3949
     8.2201   8.2202   9.4321   9.4321   9.6333   9.7527  10.4524  10.8247
    20.7313  21.1459  21.1460  21.2209

          k = 0.3132 0.4385 0.4385 (  1322 PWs)   bands (ev):

    -3.8497  -2.8617  -2.8616  -2.1223   0.4635   1.1846   1.1846   2.1433
     8.9177   9.3863   9.3863  10.0714  10.0811  10.2088  10.2090  10.8297
    21.2798  21.5561  21.5561  21.8308

          k = 0.4385 0.4385 0.4385 (  1343 PWs)   bands (ev):

    -3.1264  -2.3775  -2.3775  -2.3773   0.2014   0.2015   0.2015   0.9354
    10.1832  10.1832  10.1834  10.3561  10.3562  10.3562  10.6272  10.6272
    21.6272  21.6274  21.6274  21.8323

     the Fermi energy is    15.1986 ev

!    total energy              =    -147.46616571 Ry
     Harris-Foulkes estimate   =    -147.46616611 Ry
     estimated scf accuracy    <       0.00000072 Ry

     total all-electron energy =      -609.578943 Ry

     The total energy is the sum of the following terms:

     one-electron contribution =      33.90804948 Ry
     hartree contribution      =       7.75870768 Ry
     xc contribution           =     -37.50896440 Ry
     ewald contribution        =    -102.32168314 Ry
     one-center paw contrib.   =     -49.30227533 Ry
     smearing contrib. (-TS)   =       0.00000000 Ry

     total magnetization       =     0.00 Bohr mag/cell
     absolute magnetization    =     0.00 Bohr mag/cell

     convergence has been achieved in   4 iterations

     Forces acting on atoms (cartesian axes, Ry/au):

     atom    1 type  1   force =     0.00001947   -0.00001947    0.00001947
     atom    2 type  1   force =     0.00000000    0.00000000    0.00000000
     atom    3 type  1   force =     0.00001947    0.00001947   -0.00001947
     atom    4 type  1   force =     0.00000000    0.00000000    0.00000000
     atom    5 type  1   force =    -0.00001947   -0.00001947   -0.00001947
     atom    6 type  1   force =     0.00000000    0.00000000    0.00000000
     atom    7 type  1   force =    -0.00001947    0.00001947    0.00001947
     atom    8 type  1   force =     0.00000000    0.00000000    0.00000000

     Total force =     0.000067     Total SCF correction =     0.000003


     Computing stress (Cartesian axis) and pressure

          total   stress  (Ry/bohr**3)                   (kbar)     P=   16.60
   0.00011281   0.00000000   0.00000000         16.60      0.00      0.00
   0.00000000   0.00011281   0.00000000          0.00     16.60      0.00
   0.00000000   0.00000000   0.00011281          0.00      0.00     16.60


     number of scf cycles    =   2
     number of bfgs steps    =   1

     enthalpy old            =    -147.4661830806 Ry
     enthalpy new            =    -147.4661657103 Ry

     CASE: enthalpy_new > enthalpy_old

     new trust radius        =       0.0034665413 bohr
     new conv_thr            =       0.0000010000 Ry

     new unit-cell volume =    307.09005 a.u.^3 (    45.50605 Ang^3 )
     density =      3.50618 g/cm^3

CELL_PARAMETERS (alat=  6.75333318)
   0.999011306   0.000000000   0.000000000
   0.000000000   0.999011306   0.000000000
   0.000000000   0.000000000   0.999011306

ATOMIC_POSITIONS (crystal)
C        0.249998998   0.750001002   0.249998998
C        0.000000000   0.000000000   0.500000000
C        0.249998998   0.249998998   0.750001002
C        0.000000000   0.500000000   0.000000000
C        0.750001002   0.750001002   0.750001002
C        0.500000000   0.000000000   0.000000000
C        0.750001002   0.249998998   0.249998998
C        0.500000000   0.500000000   0.500000000



     Writing output data file pw.save/
     NEW-OLD atomic charge density approx. for the potential

     Check: negative core charge=   -0.000015
     extrapolated charge   32.11377, renormalised to   32.00000

     total cpu time spent up to now is       55.4 secs

     Self-consistent Calculation

     iteration #  1     ecut=    40.00 Ry     beta= 0.70
     Davidson diagonalization with overlap
     ethr =  1.00E-06,  avg # of iterations =  2.0

     Threshold (ethr) on eigenvalues was too large:
     Diagonalizing with lowered threshold

     Davidson diagonalization with overlap
     ethr =  8.04E-08,  avg # of iterations =  1.0

     total cpu time spent up to now is       61.8 secs

     total energy              =    -147.46617067 Ry
     Harris-Foulkes estimate   =    -147.54928857 Ry
     estimated scf accuracy    <       0.00002658 Ry

     total magnetization       =    -0.00 Bohr mag/cell
     absolute magnetization    =     0.00 Bohr mag/cell

     iteration #  2     ecut=    40.00 Ry     beta= 0.70
     Davidson diagonalization with overlap
     ethr =  8.31E-08,  avg # of iterations =  2.8

     total cpu time spent up to now is       66.2 secs

     total energy              =    -147.46622563 Ry
     Harris-Foulkes estimate   =    -147.46623175 Ry
     estimated scf accuracy    <       0.00001711 Ry

     total magnetization       =     0.00 Bohr mag/cell
     absolute magnetization    =     0.00 Bohr mag/cell

     iteration #  3     ecut=    40.00 Ry     beta= 0.70
     Davidson diagonalization with overlap
     ethr =  5.35E-08,  avg # of iterations =  1.0

     total cpu time spent up to now is       69.4 secs

     total energy              =    -147.46622380 Ry
     Harris-Foulkes estimate   =    -147.46622614 Ry
     estimated scf accuracy    <       0.00000426 Ry

     total magnetization       =     0.00 Bohr mag/cell
     absolute magnetization    =     0.00 Bohr mag/cell

     iteration #  4     ecut=    40.00 Ry     beta= 0.70
     Davidson diagonalization with overlap
     ethr =  1.33E-08,  avg # of iterations =  2.0

     Magnetic moment per site:
     atom:    1    charge:    2.0162    magn:   -0.0000    constr:    0.0000
     atom:    2    charge:    2.0162    magn:    0.0000    constr:    0.0000
     atom:    3    charge:    2.0162    magn:   -0.0000    constr:    0.0000
     atom:    4    charge:    2.0162    magn:    0.0000    constr:    0.0000
     atom:    5    charge:    2.0162    magn:   -0.0000    constr:    0.0000
     atom:    6    charge:    2.0162    magn:    0.0000    constr:    0.0000
     atom:    7    charge:    2.0162    magn:   -0.0000    constr:    0.0000
     atom:    8    charge:    2.0162    magn:    0.0000    constr:    0.0000

     total cpu time spent up to now is       73.5 secs

     End of self-consistent calculation

 ------ SPIN UP ------------


          k = 0.0626 0.0626 0.0626 (  1327 PWs)   bands (ev):

    -8.0325  -0.3748  -0.3748  -0.3747   1.6024   1.6024   1.6024   6.6881
     6.6881   6.6881   7.1104   7.1104   7.1104  12.5704  13.1126  13.1126
    18.0212  18.0213  18.0213  18.7845

          k = 0.0626 0.0626 0.1877 (  1317 PWs)   bands (ev):

    -7.7451  -2.1967  -0.1736  -0.1735   1.7216   1.7216   3.6560   5.8677
     5.8677   6.9321   6.9321   7.0035   7.3888  11.4520  12.1925  12.7613
    17.7725  18.7957  18.7958  18.9469

          k = 0.0626 0.0626 0.3128 (  1310 PWs)   bands (ev):

    -7.1727  -3.8147   0.1799   0.1800   1.8672   1.8673   5.0615   5.0615
     5.6609   6.3751   6.3751   7.6658   7.9381  10.1372  10.9653  11.7088
    17.7427  18.6009  20.4265  20.4265

          k = 0.0626 0.0626 0.4379 (  1312 PWs)   bands (ev):

    -6.3202  -5.1962   0.5256   0.5256   1.8940   1.8940   4.6300   4.6300
     5.8804   5.8804   7.4039   8.7420   8.7719   8.8106   9.7715  10.2626
    17.9120  18.2228  22.4943  22.4943

          k = 0.0626 0.1877 0.1877 (  1312 PWs)   bands (ev):

    -7.4587  -1.9543  -1.9543  -0.0317   1.7572   3.5688   3.5688   4.8346
     6.2909   6.2909   7.2640   7.2640   7.5815  10.2148  11.5291  12.7857
    18.6106  18.7163  18.7163  19.6653

          k = 0.0626 0.1877 0.3128 (  1316 PWs)   bands (ev):

    -6.8883  -3.5518  -1.4891   0.0808   1.7680   3.2258   4.2926   5.1385
     5.5941   6.9548   7.1383   7.6314   8.0281   8.8793  10.3866  12.1398
    18.7576  19.5033  19.5854  20.4266

          k = 0.0626 0.1877 0.4379 (  1312 PWs)   bands (ev):

    -6.0396  -4.9221  -0.8577  -0.2176   2.0121   2.6064   4.4299   4.9611
     6.3952   6.9584   7.2955   7.5980   8.1471   9.2198   9.3590  10.8844
    18.9516  19.2555  21.2105  22.4366

          k = 0.0626 0.3128 0.3128 (  1314 PWs)   bands (ev):

    -6.3227  -3.0359  -3.0359  -0.4712   1.8981   4.2598   4.2598   4.2626
     6.3607   6.3607   7.5650   8.2271   8.2271   8.4702   9.3245  12.0539
    19.5065  20.5038  20.5039  20.7191

          k = 0.0626 0.3128 0.4379 (  1319 PWs)   bands (ev):

    -5.4826  -4.3798  -2.2927  -1.3835   2.4625   3.3009   4.7468   5.2407
     5.5022   6.3345   7.2229   8.2223   8.5221   8.7038   9.8157  11.2140
    20.5235  20.6730  20.8623  22.3310

          k = 0.0626 0.4379 0.4379 (  1314 PWs)   bands (ev):

    -4.6580  -3.5835  -3.5834  -2.5625   3.1910   4.1387   4.1387   5.1582
     5.3912   6.2513   6.2513   7.1818   9.6579   9.9829   9.9830  10.9412
    20.6736  21.6558  21.6558  21.7120

          k = 0.1877 0.1877 0.1877 (  1304 PWs)   bands (ev):

    -7.1733  -1.7280  -1.7280  -1.7280   3.1284   3.1284   3.1284   5.7035
     5.7035   5.7035   7.8431   7.8431   7.8431   8.8546  12.0940  12.0940
    18.7524  18.7525  18.7525  20.4724

          k = 0.1877 0.1877 0.3128 (  1317 PWs)   bands (ev):

    -6.6053  -3.2951  -1.3189  -1.3189   2.2970   2.2970   4.1275   5.6438
     5.6438   7.3020   7.4694   7.9255   7.9255   8.3561  11.0799  11.7994
    19.0205  19.6885  19.6885  20.1900

          k = 0.1877 0.1877 0.4379 (  1307 PWs)   bands (ev):

    -5.7608  -4.6510  -0.8958  -0.8957   1.5684   1.5684   5.0925   5.8060
     5.8060   6.1993   7.7491   7.7491   9.0969   9.0996  10.0325  10.6978
    19.3835  19.7943  21.3405  21.3405

          k = 0.1877 0.3128 0.3128 (  1311 PWs)   bands (ev):

    -6.0426  -2.7976  -2.7976  -1.1372   1.3485   2.9210   2.9210   5.9831
     6.0685   7.3033   7.3033   8.5872   8.5872   8.6898  10.5148  11.7082
    19.7310  20.0251  20.0252  20.9722

          k = 0.1877 0.3128 0.4379 (  1318 PWs)   bands (ev):

    -5.2080  -4.1166  -2.1098  -1.4043   1.1740   1.8510   3.7540   4.8112
     6.4824   6.9936   8.5799   8.7916   8.9229   9.5755   9.7790  11.0282
    20.4469  20.7185  20.8552  21.5432

          k = 0.1877 0.4379 0.4379 (  1316 PWs)   bands (ev):

    -4.3927  -3.3398  -3.3398  -2.3757   1.6480   2.5699   2.5699   3.5784
     7.1641   7.8917   7.8917   8.7519   9.7877  10.0518  10.0519  10.8931
    20.8670  21.6567  21.6568  21.7882

          k = 0.3128 0.3128 0.3128 (  1313 PWs)   bands (ev):

    -5.4867  -2.3618  -2.3618  -2.3617   1.6079   1.6080   1.6080   4.6238
     7.8789   7.8789   7.8790   9.1127   9.1128   9.1128  11.1110  11.1110
    20.1421  20.1422  20.1422  21.4964

          k = 0.3128 0.3128 0.4379 (  1320 PWs)   bands (ev):

    -4.6661  -3.6046  -1.8998  -1.8998   0.6839   0.6839   2.3317   3.3580
     8.1716   8.1717   9.3839   9.3839   9.5812   9.7033  10.4006  10.7705
    20.6537  21.0689  21.0689  21.1421

          k = 0.3128 0.4379 0.4379 (  1322 PWs)   bands (ev):

    -3.8762  -2.8919  -2.8919  -2.1568   0.4378   1.1547   1.1547   2.1100
     8.8682   9.3359   9.3359  10.0207  10.0296  10.1575  10.1576  10.7764
    21.2008  21.4792  21.4792  21.7523

          k = 0.4379 0.4379 0.4379 (  1343 PWs)   bands (ev):

    -3.1560  -2.4115  -2.4115  -2.4114   0.1768   0.1768   0.1768   0.9064
    10.1311  10.1311  10.1312  10.3044  10.3044  10.3044  10.5745  10.5745
    21.5486  21.5486  21.5486  21.7546

 ------ SPIN DOWN ----------


          k = 0.0626 0.0626 0.0626 (  1327 PWs)   bands (ev):

    -8.0325  -0.3748  -0.3748  -0.3747   1.6024   1.6024   1.6024   6.6881
     6.6881   6.6881   7.1104   7.1104   7.1104  12.5704  13.1126  13.1126
    18.0212  18.0213  18.0213  18.7845

          k = 0.0626 0.0626 0.1877 (  1317 PWs)   bands (ev):

    -7.7451  -2.1967  -0.1736  -0.1735   1.7216   1.7216   3.6560   5.8677
     5.8677   6.9321   6.9321   7.0035   7.3888  11.4520  12.1925  12.7613
    17.7725  18.7957  18.7958  18.9469

          k = 0.0626 0.0626 0.3128 (  1310 PWs)   bands (ev):

    -7.1727  -3.8147   0.1799   0.1800   1.8672   1.8673   5.0615   5.0615
     5.6609   6.3751   6.3751   7.6658   7.9381  10.1372  10.9653  11.7088
    17.7427  18.6009  20.4265  20.4265

          k = 0.0626 0.0626 0.4379 (  1312 PWs)   bands (ev):

    -6.3202  -5.1962   0.5256   0.5256   1.8940   1.8940   4.6300   4.6300
     5.8804   5.8804   7.4039   8.7420   8.7719   8.8106   9.7715  10.2626
    17.9120  18.2228  22.4943  22.4943

          k = 0.0626 0.1877 0.1877 (  1312 PWs)   bands (ev):

    -7.4587  -1.9543  -1.9543  -0.0317   1.7572   3.5688   3.5688   4.8346
     6.2909   6.2909   7.2640   7.2640   7.5815  10.2148  11.5291  12.7857
    18.6106  18.7163  18.7163  19.6653

          k = 0.0626 0.1877 0.3128 (  1316 PWs)   bands (ev):

    -6.8883  -3.5518  -1.4891   0.0808   1.7680   3.2258   4.2926   5.1385
     5.5941   6.9548   7.1383   7.6314   8.0281   8.8793  10.3866  12.1398
    18.7576  19.5033  19.5854  20.4266

          k = 0.0626 0.1877 0.4379 (  1312 PWs)   bands (ev):

    -6.0396  -4.9221  -0.8577  -0.2176   2.0121   2.6064   4.4299   4.9611
     6.3952   6.9584   7.2955   7.5980   8.1471   9.2198   9.3590  10.8844
    18.9516  19.2555  21.2105  22.4366

          k = 0.0626 0.3128 0.3128 (  1314 PWs)   bands (ev):

    -6.3227  -3.0359  -3.0359  -0.4712   1.8981   4.2598   4.2598   4.2626
     6.3607   6.3607   7.5650   8.2271   8.2271   8.4702   9.3245  12.0539
    19.5065  20.5038  20.5039  20.7191

          k = 0.0626 0.3128 0.4379 (  1319 PWs)   bands (ev):

    -5.4826  -4.3798  -2.2927  -1.3835   2.4625   3.3009   4.7468   5.2407
     5.5022   6.3345   7.2229   8.2223   8.5221   8.7038   9.8157  11.2140
    20.5235  20.6730  20.8623  22.3297

          k = 0.0626 0.4379 0.4379 (  1314 PWs)   bands (ev):

    -4.6580  -3.5835  -3.5834  -2.5625   3.1910   4.1387   4.1387   5.1582
     5.3912   6.2513   6.2513   7.1818   9.6579   9.9829   9.9830  10.9412
    20.6736  21.6558  21.6558  21.7120

          k = 0.1877 0.1877 0.1877 (  1304 PWs)   bands (ev):

    -7.1733  -1.7280  -1.7280  -1.7280   3.1284   3.1284   3.1284   5.7035
     5.7035   5.7035   7.8431   7.8431   7.8431   8.8546  12.0940  12.0940
    18.7524  18.7525  18.7525  20.4724

          k = 0.1877 0.1877 0.3128 (  1317 PWs)   bands (ev):

    -6.6053  -3.2951  -1.3189  -1.3189   2.2970   2.2970   4.1275   5.6438
     5.6438   7.3020   7.4694   7.9255   7.9255   8.3561  11.0799  11.7994
    19.0205  19.6885  19.6885  20.1900

          k = 0.1877 0.1877 0.4379 (  1307 PWs)   bands (ev):

    -5.7608  -4.6510  -0.8958  -0.8957   1.5684   1.5684   5.0925   5.8060
     5.8060   6.1993   7.7491   7.7491   9.0969   9.0996  10.0325  10.6978
    19.3835  19.7943  21.3405  21.3405

          k = 0.1877 0.3128 0.3128 (  1311 PWs)   bands (ev):

    -6.0426  -2.7976  -2.7976  -1.1372   1.3485   2.9210   2.9210   5.9831
     6.0685   7.3033   7.3033   8.5872   8.5872   8.6898  10.5148  11.7082
    19.7310  20.0251  20.0252  20.9722

          k = 0.1877 0.3128 0.4379 (  1318 PWs)   bands (ev):

    -5.2080  -4.1166  -2.1098  -1.4043   1.1740   1.8510   3.7540   4.8112
     6.4824   6.9936   8.5799   8.7916   8.9229   9.5755   9.7790  11.0282
    20.4469  20.7185  20.8552  21.5432

          k = 0.1877 0.4379 0.4379 (  1316 PWs)   bands (ev):

    -4.3927  -3.3398  -3.3398  -2.3757   1.6480   2.5699   2.5699   3.5784
     7.1641   7.8917   7.8917   8.7519   9.7877  10.0518  10.0519  10.8931
    20.8670  21.6567  21.6568  21.7882

          k = 0.3128 0.3128 0.3128 (  1313 PWs)   bands (ev):

    -5.4867  -2.3618  -2.3618  -2.3617   1.6079   1.6080   1.6080   4.6238
     7.8789   7.8789   7.8790   9.1127   9.1128   9.1128  11.1110  11.1110
    20.1421  20.1422  20.1422  21.4964

          k = 0.3128 0.3128 0.4379 (  1320 PWs)   bands (ev):

    -4.6661  -3.6046  -1.8998  -1.8998   0.6839   0.6839   2.3317   3.3580
     8.1716   8.1717   9.3839   9.3839   9.5812   9.7033  10.4006  10.7705
    20.6537  21.0689  21.0689  21.1421

          k = 0.3128 0.4379 0.4379 (  1322 PWs)   bands (ev):

    -3.8762  -2.8919  -2.8919  -2.1568   0.4378   1.1547   1.1547   2.1100
     8.8682   9.3359   9.3359  10.0207  10.0296  10.1575  10.1576  10.7764
    21.2008  21.4792  21.4792  21.7523

          k = 0.4379 0.4379 0.4379 (  1343 PWs)   bands (ev):

    -3.1560  -2.4115  -2.4115  -2.4114   0.1768   0.1768   0.1768   0.9064
    10.1311  10.1311  10.1312  10.3044  10.3044  10.3044  10.5745  10.5745
    21.5486  21.5486  21.5486  21.7546

     the Fermi energy is    15.1347 ev

!    total energy              =    -147.46622434 Ry
     Harris-Foulkes estimate   =    -147.46622447 Ry
     estimated scf accuracy    <       0.00000020 Ry

     total all-electron energy =      -609.579002 Ry

     The total energy is the sum of the following terms:

     one-electron contribution =      33.74796317 Ry
     hartree contribution      =       7.77181837 Ry
     xc contribution           =     -37.48413096 Ry
     ewald contribution        =    -102.20027953 Ry
     one-center paw contrib.   =     -49.30159539 Ry
     smearing contrib. (-TS)   =       0.00000000 Ry

     total magnetization       =     0.00 Bohr mag/cell
     absolute magnetization    =     0.00 Bohr mag/cell

     convergence has been achieved in   4 iterations

     Forces acting on atoms (cartesian axes, Ry/au):

     atom    1 type  1   force =     0.00000872   -0.00000872    0.00000872
     atom    2 type  1   force =     0.00000000    0.00000000    0.00000000
     atom    3 type  1   force =     0.00000872    0.00000872   -0.00000872
     atom    4 type  1   force =     0.00000000    0.00000000    0.00000000
     atom    5 type  1   force =    -0.00000872   -0.00000872   -0.00000872
     atom    6 type  1   force =     0.00000000    0.00000000    0.00000000
     atom    7 type  1   force =    -0.00000872    0.00000872    0.00000872
     atom    8 type  1   force =     0.00000000    0.00000000    0.00000000

     Total force =     0.000030     Total SCF correction =     0.000001


     Computing stress (Cartesian axis) and pressure

          total   stress  (Ry/bohr**3)                   (kbar)     P=   -0.42
  -0.00000288   0.00000000   0.00000000         -0.42      0.00      0.00
   0.00000000  -0.00000288   0.00000000          0.00     -0.42      0.00
   0.00000000   0.00000000  -0.00000288          0.00      0.00     -0.42


     bfgs converged in   3 scf cycles and   1 bfgs steps
     (criteria: energy <  1.0E-04 Ry, force <  1.0E-03Ry/Bohr, cell <  5.0E-01kbar)

     End of BFGS Geometry Optimization

     Final enthalpy =    -147.4662243417 Ry
Begin final coordinates
     new unit-cell volume =    307.09005 a.u.^3 (    45.50605 Ang^3 )
     density =      3.50618 g/cm^3

CELL_PARAMETERS (alat=  6.75333318)
   0.999011306   0.000000000   0.000000000
   0.000000000   0.999011306   0.000000000
   0.000000000   0.000000000   0.999011306

ATOMIC_POSITIONS (crystal)
C        0.249998998   0.750001002   0.249998998
C        0.000000000   0.000000000   0.500000000
C        0.249998998   0.249998998   0.750001002
C        0.000000000   0.500000000   0.000000000
C        0.750001002   0.750001002   0.750001002
C        0.500000000   0.000000000   0.000000000
C        0.750001002   0.249998998   0.249998998
C        0.500000000   0.500000000   0.500000000
End final coordinates



     Writing output data file pw.save/

     A final scf calculation at the relaxed structure.
     The G-vectors are recalculated for the final unit cell
     Results may differ from those at the preceding step.

     Parallelization info
     --------------------
     sticks:   dense  smooth     PW     G-vecs:    dense   smooth      PW
     Min         592     288     88                15274     5220     894
     Max         593     289     89                15277     5223     897
     Sum        1185     577    177                30551    10443    1791



     bravais-lattice index     =            0
     lattice parameter (alat)  =       6.7533  a.u.
     unit-cell volume          =     307.0900 (a.u.)^3
     number of atoms/cell      =            8
     number of atomic types    =            1
     number of electrons       =        32.00
     number of Kohn-Sham states=           20
     kinetic-energy cutoff     =      40.0000  Ry
     charge density cutoff     =     326.0000  Ry
     convergence threshold     =      1.0E-06
     mixing beta               =       0.7000
     number of iterations used =            8  plain     mixing
     Exchange-correlation      = SLA PW PBX PBC ( 1  4  3  4 0 0)

     celldm(1)=   6.753333  celldm(2)=   0.000000  celldm(3)=   0.000000
     celldm(4)=   0.000000  celldm(5)=   0.000000  celldm(6)=   0.000000

     crystal axes: (cart. coord. in units of alat)
               a(1) = (   0.999011   0.000000   0.000000 )  
               a(2) = (   0.000000   0.999011   0.000000 )  
               a(3) = (   0.000000   0.000000   0.999011 )  

     reciprocal axes: (cart. coord. in units 2 pi/alat)
               b(1) = (  1.000990  0.000000  0.000000 )  
               b(2) = (  0.000000  1.000990  0.000000 )  
               b(3) = (  0.000000  0.000000  1.000990 )  


     PseudoPot. # 1 for C  read from file:
     ./potentials/C.pbe-n-kjpaw_psl.1.0.0.UPF
     MD5 check sum: 5f16ad9a65e90284d1d834d4ab3b0f7d
     Pseudo is Projector augmented-wave + core cor, Zval =  4.0
     Generated using "atomic" code by A. Dal Corso v.6.3
     Shape of augmentation charge: PSQ
     Using radial grid of 1073 points,  4 beta functions with: 
                l(1) =   0
                l(2) =   0
                l(3) =   1
                l(4) =   1
     Q(r) pseudized with 0 coefficients 


     atomic species   valence    mass     pseudopotential
        C              4.00    12.01060     C ( 1.00)

     Starting magnetic structure 
     atomic species   magnetization
        C            0.000

     24 Sym. Ops. (no inversion) found



   Cartesian axes

     site n.     atom                  positions (alat units)
         1           C   tau(   1) = (   0.2497518   0.7492595   0.2497518  )
         2           C   tau(   2) = (   0.0000000   0.0000000   0.4995057  )
         3           C   tau(   3) = (   0.2497518   0.2497518   0.7492595  )
         4           C   tau(   4) = (   0.0000000   0.4995057   0.0000000  )
         5           C   tau(   5) = (   0.7492595   0.7492595   0.7492595  )
         6           C   tau(   6) = (   0.4995057   0.0000000   0.0000000  )
         7           C   tau(   7) = (   0.7492595   0.2497518   0.2497518  )
         8           C   tau(   8) = (   0.4995057   0.4995057   0.4995057  )

     number of k points=    20  Methfessel-Paxton smearing, width (Ry)=  0.0200
                       cart. coord. in units 2pi/alat
        k(    1) = (   0.0625619   0.0625619   0.0625619), wk =   0.0156250
        k(    2) = (   0.0625619   0.0625619   0.1876856), wk =   0.0468750
        k(    3) = (   0.0625619   0.0625619   0.3128093), wk =   0.0468750
        k(    4) = (   0.0625619   0.0625619   0.4379330), wk =   0.0468750
        k(    5) = (   0.0625619   0.1876856   0.1876856), wk =   0.0468750
        k(    6) = (   0.0625619   0.1876856   0.3128093), wk =   0.0937500
        k(    7) = (   0.0625619   0.1876856   0.4379330), wk =   0.0937500
        k(    8) = (   0.0625619   0.3128093   0.3128093), wk =   0.0468750
        k(    9) = (   0.0625619   0.3128093   0.4379330), wk =   0.0937500
        k(   10) = (   0.0625619   0.4379330   0.4379330), wk =   0.0468750
        k(   11) = (   0.1876856   0.1876856   0.1876856), wk =   0.0156250
        k(   12) = (   0.1876856   0.1876856   0.3128093), wk =   0.0468750
        k(   13) = (   0.1876856   0.1876856   0.4379330), wk =   0.0468750
        k(   14) = (   0.1876856   0.3128093   0.3128093), wk =   0.0468750
        k(   15) = (   0.1876856   0.3128093   0.4379330), wk =   0.0937500
        k(   16) = (   0.1876856   0.4379330   0.4379330), wk =   0.0468750
        k(   17) = (   0.3128093   0.3128093   0.3128093), wk =   0.0156250
        k(   18) = (   0.3128093   0.3128093   0.4379330), wk =   0.0468750
        k(   19) = (   0.3128093   0.4379330   0.4379330), wk =   0.0468750
        k(   20) = (   0.4379330   0.4379330   0.4379330), wk =   0.0156250

     Dense  grid:    30551 G-vectors     FFT dimensions: (  40,  40,  40)

     Smooth grid:    10443 G-vectors     FFT dimensions: (  27,  27,  27)

     Estimated max dynamical RAM per process >      39.61 MB

     Estimated total dynamical RAM >      79.22 MB
     Generating pointlists ...

     Check: negative core charge=   -0.000015

     Initial potential from superposition of free atoms

     starting charge   31.99967, renormalised to   32.00000
     Starting wfcs are   32 randomized atomic wfcs
     Checking if some PAW data can be deallocated... 

     total cpu time spent up to now is       80.1 secs

     Self-consistent Calculation

     iteration #  1     ecut=    40.00 Ry     beta= 0.70
     Davidson diagonalization with overlap
     c_bands:  2 eigenvalues not converged
     c_bands:  1 eigenvalues not converged
     ethr =  1.00E-06,  avg # of iterations = 13.7

     total cpu time spent up to now is       91.3 secs

     total energy              =    -147.43086970 Ry
     Harris-Foulkes estimate   =    -147.64650305 Ry
     estimated scf accuracy    <       0.46807299 Ry

     total magnetization       =    -0.00 Bohr mag/cell
     absolute magnetization    =     0.00 Bohr mag/cell

     iteration #  2     ecut=    40.00 Ry     beta= 0.70
     Davidson diagonalization with overlap
     ethr =  1.46E-03,  avg # of iterations =  1.4

     total cpu time spent up to now is       94.6 secs

     total energy              =    -147.46440298 Ry
     Harris-Foulkes estimate   =    -147.46542500 Ry
     estimated scf accuracy    <       0.00963364 Ry

     total magnetization       =     0.00 Bohr mag/cell
     absolute magnetization    =     0.00 Bohr mag/cell

     iteration #  3     ecut=    40.00 Ry     beta= 0.70
     Davidson diagonalization with overlap
     ethr =  3.01E-05,  avg # of iterations =  2.6

     total cpu time spent up to now is       98.8 secs

     total energy              =    -147.46609843 Ry
     Harris-Foulkes estimate   =    -147.46607040 Ry
     estimated scf accuracy    <       0.00029735 Ry

     total magnetization       =    -0.00 Bohr mag/cell
     absolute magnetization    =     0.00 Bohr mag/cell

     iteration #  4     ecut=    40.00 Ry     beta= 0.70
     Davidson diagonalization with overlap
     ethr =  9.29E-07,  avg # of iterations =  3.4

     total cpu time spent up to now is      103.2 secs

     total energy              =    -147.46614543 Ry
     Harris-Foulkes estimate   =    -147.46614866 Ry
     estimated scf accuracy    <       0.00000721 Ry

     total magnetization       =     0.00 Bohr mag/cell
     absolute magnetization    =     0.00 Bohr mag/cell

     iteration #  5     ecut=    40.00 Ry     beta= 0.70
     Davidson diagonalization with overlap
     ethr =  2.25E-08,  avg # of iterations =  2.8

     Magnetic moment per site:
     atom:    1    charge:    2.0204    magn:   -0.0000    constr:    0.0000
     atom:    2    charge:    2.0204    magn:    0.0000    constr:    0.0000
     atom:    3    charge:    2.0204    magn:   -0.0000    constr:    0.0000
     atom:    4    charge:    2.0204    magn:    0.0000    constr:    0.0000
     atom:    5    charge:    2.0204    magn:   -0.0000    constr:    0.0000
     atom:    6    charge:    2.0204    magn:    0.0000    constr:    0.0000
     atom:    7    charge:    2.0204    magn:   -0.0000    constr:    0.0000
     atom:    8    charge:    2.0205    magn:   -0.0000    constr:    0.0000

     total cpu time spent up to now is      107.5 secs

     End of self-consistent calculation

 ------ SPIN UP ------------


          k = 0.0626 0.0626 0.0626 (  1321 PWs)   bands (ev):

    -8.0329  -0.3752  -0.3750  -0.3750   1.6020   1.6021   1.6021   6.6877
     6.6878   6.6878   7.1101   7.1101   7.1102  12.5699  13.1121  13.1121
    18.0208  18.0209  18.0209  19.1428

          k = 0.0626 0.0626 0.1877 (  1309 PWs)   bands (ev):

    -7.7455  -2.1970  -0.1740  -0.1738   1.7212   1.7213   3.6556   5.8674
     5.8675   6.9318   6.9319   7.0033   7.3885  11.4516  12.1921  12.7608
    17.7719  18.7951  18.7951  18.9466

          k = 0.0626 0.0626 0.3128 (  1310 PWs)   bands (ev):

    -7.1731  -3.8150   0.1795   0.1797   1.8668   1.8669   5.0611   5.0612
     5.6605   6.3747   6.3748   7.6654   7.9377  10.1368  10.9648  11.7083
    17.7421  18.6005  20.4258  20.4259

          k = 0.0626 0.0626 0.4379 (  1308 PWs)   bands (ev):

    -6.3206  -5.1966   0.5252   0.5254   1.8937   1.8937   4.6295   4.6297
     5.8800   5.8800   7.4036   8.7420   8.7716   8.8102   9.7711  10.2622
    17.9116  18.2224  22.4936  22.4937

          k = 0.0626 0.1877 0.1877 (  1310 PWs)   bands (ev):

    -7.4591  -1.9547  -1.9546  -0.0320   1.7569   3.5684   3.5685   4.8342
     6.2905   6.2906   7.2636   7.2637   7.5811  10.2144  11.5287  12.7852
    18.6099  18.7157  18.7158  19.6650

          k = 0.0626 0.1877 0.3128 (  1312 PWs)   bands (ev):

    -6.8887  -3.5522  -1.4895   0.0805   1.7677   3.2254   4.2923   5.1381
     5.5937   6.9544   7.1379   7.6311   8.0277   8.8789  10.3862  12.1393
    18.7571  19.5028  19.5850  20.4260

          k = 0.0626 0.1877 0.4379 (  1312 PWs)   bands (ev):

    -6.0400  -4.9225  -0.8581  -0.2180   2.0117   2.6060   4.4295   4.9607
     6.3948   6.9580   7.2951   7.5976   8.1467   9.2194   9.3585  10.8840
    18.9511  19.2551  21.2099  22.4360

          k = 0.0626 0.3128 0.3128 (  1314 PWs)   bands (ev):

    -6.3231  -3.0363  -3.0362  -0.4715   1.8977   4.2595   4.2595   4.2622
     6.3603   6.3603   7.5646   8.2266   8.2268   8.4699   9.3241  12.0535
    19.5059  20.5033  20.5034  20.7188

          k = 0.0626 0.3128 0.4379 (  1309 PWs)   bands (ev):

    -5.4829  -4.3802  -2.2930  -1.3838   2.4621   3.3005   4.7464   5.2404
     5.5020   6.3342   7.2228   8.2219   8.5218   8.7034   9.8156  11.2137
    20.5229  20.6726  20.8621  22.3309

          k = 0.0626 0.4379 0.4379 (  1310 PWs)   bands (ev):

    -4.6584  -3.5839  -3.5837  -2.5629   3.1906   4.1383   4.1384   5.1579
     5.3908   6.2509   6.2509   7.1814   9.6575   9.9827   9.9829  10.9407
    20.6731  21.6554  21.6556  21.7116

          k = 0.1877 0.1877 0.1877 (  1304 PWs)   bands (ev):

    -7.1737  -1.7285  -1.7283  -1.7283   3.1280   3.1281   3.1281   5.7029
     5.7032   5.7032   7.8427   7.8427   7.8428   8.8542  12.0936  12.0936
    18.7518  18.7519  18.7519  20.4721

          k = 0.1877 0.1877 0.3128 (  1307 PWs)   bands (ev):

    -6.6057  -3.2955  -1.3193  -1.3192   2.2967   2.2967   4.1271   5.6434
     5.6436   7.3017   7.4690   7.9252   7.9252   8.3560  11.0795  11.7989
    19.0201  19.6880  19.6881  20.1897

          k = 0.1877 0.1877 0.4379 (  1301 PWs)   bands (ev):

    -5.7612  -4.6514  -0.8962  -0.8960   1.5680   1.5680   5.0921   5.8056
     5.8058   6.1989   7.7489   7.7489   9.0965   9.0993  10.0321  10.6974
    19.3831  19.7939  21.3402  21.3403

          k = 0.1877 0.3128 0.3128 (  1311 PWs)   bands (ev):

    -6.0430  -2.7980  -2.7979  -1.1375   1.3481   2.9206   2.9206   5.9827
     6.0681   7.3028   7.3030   8.5867   8.5869   8.6894  10.5144  11.7077
    19.7305  20.0246  20.0247  20.9719

          k = 0.1877 0.3128 0.4379 (  1315 PWs)   bands (ev):

    -5.2084  -4.1169  -2.1101  -1.4047   1.1735   1.8506   3.7536   4.8108
     6.4820   6.9932   8.5795   8.7912   8.9226   9.5751   9.7786  11.0280
    20.4464  20.7181  20.8548  21.5426

          k = 0.1877 0.4379 0.4379 (  1308 PWs)   bands (ev):

    -4.3930  -3.3402  -3.3401  -2.3760   1.6478   2.5696   2.5696   3.5780
     7.1639   7.8912   7.8913   8.7515   9.7873  10.0515  10.0517  10.8927
    20.8667  21.6563  21.6564  21.7878

          k = 0.3128 0.3128 0.3128 (  1307 PWs)   bands (ev):

    -5.4871  -2.3623  -2.3620  -2.3620   1.6077   1.6077   1.6077   4.6234
     7.8784   7.8787   7.8787   9.1124   9.1124   9.1125  11.1106  11.1106
    20.1415  20.1417  20.1417  21.4961

          k = 0.3128 0.3128 0.4379 (  1316 PWs)   bands (ev):

    -4.6665  -3.6049  -1.9002  -1.9000   0.6835   0.6835   2.3313   3.3577
     8.1712   8.1715   9.3835   9.3835   9.5808   9.7029  10.4002  10.7703
    20.6533  21.0685  21.0686  21.1418

          k = 0.3128 0.4379 0.4379 (  1322 PWs)   bands (ev):

    -3.8766  -2.8923  -2.8922  -2.1571   0.4373   1.1543   1.1543   2.1096
     8.8678   9.3354   9.3355  10.0203  10.0292  10.1570  10.1573  10.7760
    21.2003  21.4787  21.4788  21.7521

          k = 0.4379 0.4379 0.4379 (  1340 PWs)   bands (ev):

    -3.1564  -2.4120  -2.4117  -2.4117   0.1763   0.1763   0.1764   0.9060
    10.1306  10.1309  10.1309  10.3040  10.3040  10.3041  10.5741  10.5741
    21.5485  21.5487  21.5487  21.7543

 ------ SPIN DOWN ----------


          k = 0.0626 0.0626 0.0626 (  1321 PWs)   bands (ev):

    -8.0329  -0.3753  -0.3750  -0.3750   1.6019   1.6022   1.6022   6.6877
     6.6878   6.6878   7.1101   7.1101   7.1103  12.5699  13.1121  13.1121
    18.0208  18.0209  18.0209  19.1428

          k = 0.0626 0.0626 0.1877 (  1309 PWs)   bands (ev):

    -7.7455  -2.1970  -0.1740  -0.1738   1.7212   1.7213   3.6556   5.8674
     5.8675   6.9318   6.9319   7.0033   7.3885  11.4516  12.1921  12.7608
    17.7719  18.7950  18.7951  18.9466

          k = 0.0626 0.0626 0.3128 (  1310 PWs)   bands (ev):

    -7.1731  -3.8150   0.1795   0.1797   1.8668   1.8669   5.0611   5.0612
     5.6605   6.3747   6.3748   7.6654   7.9377  10.1368  10.9648  11.7083
    17.7421  18.6005  20.4258  20.4259

          k = 0.0626 0.0626 0.4379 (  1308 PWs)   bands (ev):

    -6.3206  -5.1966   0.5252   0.5254   1.8937   1.8938   4.6295   4.6297
     5.8800   5.8800   7.4036   8.7420   8.7716   8.8102   9.7711  10.2622
    17.9116  18.2224  22.4936  22.4937

          k = 0.0626 0.1877 0.1877 (  1310 PWs)   bands (ev):

    -7.4591  -1.9547  -1.9545  -0.0320   1.7569   3.5684   3.5685   4.8342
     6.2905   6.2906   7.2636   7.2637   7.5811  10.2144  11.5286  12.7852
    18.6099  18.7157  18.7158  19.6650

          k = 0.0626 0.1877 0.3128 (  1312 PWs)   bands (ev):

    -6.8887  -3.5522  -1.4895   0.0805   1.7677   3.2254   4.2923   5.1381
     5.5937   6.9544   7.1379   7.6311   8.0277   8.8789  10.3862  12.1393
    18.7571  19.5028  19.5850  20.4260

          k = 0.0626 0.1877 0.4379 (  1312 PWs)   bands (ev):

    -6.0400  -4.9225  -0.8581  -0.2180   2.0117   2.6060   4.4295   4.9607
     6.3948   6.9580   7.2951   7.5976   8.1467   9.2194   9.3585  10.8840
    18.9511  19.2551  21.2099  22.4360

          k = 0.0626 0.3128 0.3128 (  1314 PWs)   bands (ev):

    -6.3231  -3.0363  -3.0362  -0.4715   1.8977   4.2594   4.2595   4.2622
     6.3603   6.3604   7.5646   8.2266   8.2268   8.4699   9.3241  12.0535
    19.5059  20.5033  20.5034  20.7188

          k = 0.0626 0.3128 0.4379 (  1309 PWs)   bands (ev):

    -5.4829  -4.3802  -2.2930  -1.3838   2.4621   3.3005   4.7464   5.2404
     5.5020   6.3342   7.2228   8.2219   8.5218   8.7034   9.8156  11.2137
    20.5229  20.6726  20.8621  22.3309

          k = 0.0626 0.4379 0.4379 (  1310 PWs)   bands (ev):

    -4.6584  -3.5839  -3.5837  -2.5629   3.1906   4.1383   4.1384   5.1579
     5.3908   6.2509   6.2509   7.1814   9.6575   9.9827   9.9829  10.9407
    20.6731  21.6554  21.6556  21.7116

          k = 0.1877 0.1877 0.1877 (  1304 PWs)   bands (ev):

    -7.1737  -1.7286  -1.7283  -1.7283   3.1280   3.1281   3.1281   5.7029
     5.7032   5.7032   7.8426   7.8426   7.8428   8.8542  12.0936  12.0936
    18.7518  18.7519  18.7519  20.4721

          k = 0.1877 0.1877 0.3128 (  1307 PWs)   bands (ev):

    -6.6057  -3.2955  -1.3193  -1.3191   2.2967   2.2967   4.1271   5.6434
     5.6436   7.3017   7.4690   7.9251   7.9252   8.3560  11.0795  11.7989
    19.0201  19.6880  19.6881  20.1897

          k = 0.1877 0.1877 0.4379 (  1301 PWs)   bands (ev):

    -5.7612  -4.6514  -0.8962  -0.8960   1.5680   1.5680   5.0921   5.8055
     5.8058   6.1989   7.7489   7.7489   9.0965   9.0993  10.0321  10.6974
    19.3831  19.7939  21.3402  21.3404

          k = 0.1877 0.3128 0.3128 (  1311 PWs)   bands (ev):

    -6.0430  -2.7981  -2.7979  -1.1375   1.3481   2.9206   2.9206   5.9827
     6.0681   7.3028   7.3030   8.5867   8.5869   8.6894  10.5144  11.7077
    19.7305  20.0246  20.0247  20.9719

          k = 0.1877 0.3128 0.4379 (  1315 PWs)   bands (ev):

    -5.2084  -4.1169  -2.1101  -1.4047   1.1735   1.8506   3.7536   4.8108
     6.4820   6.9932   8.5795   8.7912   8.9226   9.5751   9.7786  11.0280
    20.4464  20.7181  20.8548  21.5426

          k = 0.1877 0.4379 0.4379 (  1308 PWs)   bands (ev):

    -4.3930  -3.3402  -3.3400  -2.3760   1.6478   2.5696   2.5696   3.5780
     7.1639   7.8912   7.8913   8.7515   9.7873  10.0515  10.0517  10.8927
    20.8667  21.6563  21.6565  21.7878

          k = 0.3128 0.3128 0.3128 (  1307 PWs)   bands (ev):

    -5.4871  -2.3623  -2.3620  -2.3620   1.6077   1.6077   1.6077   4.6234
     7.8783   7.8787   7.8787   9.1123   9.1123   9.1125  11.1106  11.1106
    20.1415  20.1417  20.1417  21.4961

          k = 0.3128 0.3128 0.4379 (  1316 PWs)   bands (ev):

    -4.6665  -3.6049  -1.9002  -1.9000   0.6835   0.6835   2.3313   3.3577
     8.1712   8.1715   9.3835   9.3835   9.5808   9.7029  10.4002  10.7703
    20.6533  21.0685  21.0686  21.1418

          k = 0.3128 0.4379 0.4379 (  1322 PWs)   bands (ev):

    -3.8766  -2.8924  -2.8922  -2.1571   0.4373   1.1543   1.1543   2.1096
     8.8678   9.3354   9.3355  10.0203  10.0292  10.1570  10.1573  10.7759
    21.2003  21.4787  21.4788  21.7520

          k = 0.4379 0.4379 0.4379 (  1340 PWs)   bands (ev):

    -3.1564  -2.4120  -2.4116  -2.4116   0.1763   0.1763   0.1764   0.9060
    10.1305  10.1309  10.1309  10.3040  10.3040  10.3042  10.5741  10.5741
    21.5484  21.5487  21.5487  21.7543

     the Fermi energy is    15.1342 ev

!    total energy              =    -147.46614793 Ry
     Harris-Foulkes estimate   =    -147.46614789 Ry
     estimated scf accuracy    <       0.00000018 Ry

     total all-electron energy =      -609.578926 Ry

     The total energy is the sum of the following terms:

     one-electron contribution =      33.74803935 Ry
     hartree contribution      =       7.77186165 Ry
     xc contribution           =     -37.48415128 Ry
     ewald contribution        =    -102.20027953 Ry
     one-center paw contrib.   =     -49.30161812 Ry
     smearing contrib. (-TS)   =       0.00000000 Ry

     total magnetization       =    -0.00 Bohr mag/cell
     absolute magnetization    =     0.00 Bohr mag/cell

     convergence has been achieved in   5 iterations

     Forces acting on atoms (cartesian axes, Ry/au):

     atom    1 type  1   force =     0.00001950   -0.00001950    0.00001950
     atom    2 type  1   force =     0.00000000    0.00000000    0.00000000
     atom    3 type  1   force =     0.00001950    0.00001950   -0.00001950
     atom    4 type  1   force =     0.00000000    0.00000000    0.00000000
     atom    5 type  1   force =    -0.00001950   -0.00001950   -0.00001950
     atom    6 type  1   force =     0.00000000    0.00000000    0.00000000
     atom    7 type  1   force =    -0.00001950    0.00001950    0.00001950
     atom    8 type  1   force =     0.00000000    0.00000000    0.00000000

     Total force =     0.000068     Total SCF correction =     0.000381
     SCF correction compared to forces is large: reduce conv_thr to get better values


     Computing stress (Cartesian axis) and pressure

          total   stress  (Ry/bohr**3)                   (kbar)     P=   -0.69
  -0.00000468   0.00000000   0.00000000         -0.69      0.00      0.00
   0.00000000  -0.00000468   0.00000000          0.00     -0.69      0.00
   0.00000000   0.00000000  -0.00000468          0.00      0.00     -0.69


     Writing output data file pw.save/

     init_run     :      6.36s CPU      6.18s WALL (       2 calls)
     electrons    :     90.56s CPU     83.75s WALL (       4 calls)
     update_pot   :      4.39s CPU      4.28s WALL (       2 calls)
     forces       :      4.19s CPU      3.99s WALL (       4 calls)
     stress       :      9.39s CPU      8.71s WALL (       4 calls)

     Called by init_run:
     wfcinit      :      2.86s CPU      2.62s WALL (       2 calls)
     potinit      :      1.92s CPU      1.97s WALL (       2 calls)
     hinit0       :      1.27s CPU      1.28s WALL (       2 calls)

     Called by electrons:
     c_bands      :     63.56s CPU     58.53s WALL (      20 calls)
     sum_band     :      9.00s CPU      7.67s WALL (      20 calls)
     v_of_rho     :      3.00s CPU      2.67s WALL (      23 calls)
     newd         :      0.34s CPU      0.39s WALL (      23 calls)
     PAW_pot      :     19.16s CPU     19.04s WALL (      25 calls)
     mix_rho      :      0.17s CPU      0.11s WALL (      20 calls)

     Called by c_bands:
     init_us_2    :      1.25s CPU      0.94s WALL (    2080 calls)
     cegterg      :     61.72s CPU     56.84s WALL (     800 calls)

     Called by sum_band:
     sum_band:bec :      0.02s CPU      0.03s WALL (     880 calls)
     addusdens    :      0.80s CPU      0.58s WALL (      20 calls)

     Called by *egterg:
     h_psi        :     43.88s CPU     37.91s WALL (    3190 calls)
     s_psi        :      1.91s CPU      1.26s WALL (    3190 calls)
     g_psi        :      0.20s CPU      0.19s WALL (    2310 calls)
     cdiaghg      :     11.06s CPU     14.64s WALL (    2990 calls)

     Called by h_psi:
     h_psi:pot    :     43.72s CPU     37.76s WALL (    3190 calls)
     h_psi:calbec :      2.14s CPU      1.72s WALL (    3190 calls)
     vloc_psi     :     38.84s CPU     34.42s WALL (    3190 calls)
     add_vuspsi   :      2.66s CPU      1.53s WALL (    3190 calls)

     General routines
     calbec       :      3.61s CPU      2.71s WALL (    4870 calls)
     fft          :      1.08s CPU      0.84s WALL (     731 calls)
     ffts         :      0.02s CPU      0.04s WALL (      86 calls)
     fftw         :     41.80s CPU     36.65s WALL (  111986 calls)
     interpolate  :      0.06s CPU      0.07s WALL (      46 calls)

     Parallel routines
     fft_scatt_xy :      4.36s CPU      4.09s WALL (  112803 calls)
     fft_scatt_yz :      6.53s CPU      5.62s WALL (  112803 calls)

     PWSCF        :   1m57.25s CPU   1m49.35s WALL


   This run was terminated on:  10:41:55   7Nov2020            

=------------------------------------------------------------------------------=
   JOB DONE.
=------------------------------------------------------------------------------=
