--------------------------------------------------------------------------
WARNING: Linux kernel CMA support was requested via the
btl_vader_single_copy_mechanism MCA variable, but CMA support is
not available due to restrictive ptrace settings.

The vader shared memory BTL will fall back on another single-copy
mechanism if one is available. This may result in lower performance.

  Local host: DESKTOP-12SE80T
--------------------------------------------------------------------------

     Program PWSCF v.6.4.1 starts on  7Nov2020 at 11:12:37 

     This program is part of the open-source Quantum ESPRESSO suite
     for quantum simulation of materials; please cite
         "P. Giannozzi et al., J. Phys.:Condens. Matter 21 395502 (2009);
         "P. Giannozzi et al., J. Phys.:Condens. Matter 29 465901 (2017);
          URL http://www.quantum-espresso.org", 
     in publications or presentations arising from this work. More details at
     http://www.quantum-espresso.org/quote

     Parallel version (MPI), running on     2 processors

     MPI processes distributed on     1 nodes
     R & G space division:  proc/nbgrp/npool/nimage =       2
     Waiting for input...
     Reading input from standard input

     Current dimensions of program PWSCF are:
     Max number of different atomic species (ntypx) = 10
     Max number of k-points (npk) =  40000
     Max angular momentum in pseudopotentials (lmaxx) =  3
               file Ge.pbe-dn-kjpaw_psl.1.0.0.UPF: wavefunction(s)  4S 4P 3D renormalized

     Subspace diagonalization in iterative solution of the eigenvalue problem:
     a serial algorithm will be used

     Found symmetry operation: I + (  0.0000 -0.5000  0.5000)
     This is a supercell, fractional translations are disabled
     Message from routine setup:
     DEPRECATED: symmetry with ibrav=0, use correct ibrav instead

     Parallelization info
     --------------------
     sticks:   dense  smooth     PW     G-vecs:    dense   smooth      PW
     Min        1120     790    218                40288    23698    3536
     Max        1121     791    219                40293    23703    3539
     Sum        2241    1581    437                80581    47401    7075



     bravais-lattice index     =            0
     lattice parameter (alat)  =      10.8902  a.u.
     unit-cell volume          =    1291.5488 (a.u.)^3
     number of atoms/cell      =            8
     number of atomic types    =            1
     number of electrons       =       112.00
     number of Kohn-Sham states=           67
     kinetic-energy cutoff     =      42.0000  Ry
     charge density cutoff     =     239.0000  Ry
     convergence threshold     =      1.0E-06
     mixing beta               =       0.7000
     number of iterations used =            8  plain     mixing
     Exchange-correlation      = SLA PW PBX PBC ( 1  4  3  4 0 0)
     nstep                     =           50


     celldm(1)=  10.890227  celldm(2)=   0.000000  celldm(3)=   0.000000
     celldm(4)=   0.000000  celldm(5)=   0.000000  celldm(6)=   0.000000

     crystal axes: (cart. coord. in units of alat)
               a(1) = (   1.000000   0.000000   0.000000 )  
               a(2) = (   0.000000   1.000000   0.000000 )  
               a(3) = (   0.000000   0.000000   1.000000 )  

     reciprocal axes: (cart. coord. in units 2 pi/alat)
               b(1) = (  1.000000  0.000000  0.000000 )  
               b(2) = (  0.000000  1.000000  0.000000 )  
               b(3) = (  0.000000  0.000000  1.000000 )  


     PseudoPot. # 1 for Ge read from file:
     ./potentials/Ge.pbe-dn-kjpaw_psl.1.0.0.UPF
     MD5 check sum: eb80e2af1dd627c8a8d5a19b68035a9b
     Pseudo is Projector augmented-wave + core cor, Zval = 14.0
     Generated using "atomic" code by A. Dal Corso v.6.3
     Shape of augmentation charge: PSQ
     Using radial grid of 1207 points,  6 beta functions with: 
                l(1) =   0
                l(2) =   0
                l(3) =   1
                l(4) =   1
                l(5) =   2
                l(6) =   2
     Q(r) pseudized with 0 coefficients 


     atomic species   valence    mass     pseudopotential
        Ge            14.00    72.63000     Ge( 1.00)

     Starting magnetic structure 
     atomic species   magnetization
        Ge           1.000

     24 Sym. Ops. (no inversion) found



   Cartesian axes

     site n.     atom                  positions (alat units)
         1           Ge  tau(   1) = (   0.5000000   0.0000000   0.5000000  )
         2           Ge  tau(   2) = (   0.2500000   0.2500000   0.2500000  )
         3           Ge  tau(   3) = (   0.5000000   0.5000000   0.0000000  )
         4           Ge  tau(   4) = (   0.2500000   0.7500000   0.7500000  )
         5           Ge  tau(   5) = (   0.0000000   0.0000000   0.0000000  )
         6           Ge  tau(   6) = (   0.7500000   0.2500000   0.7500000  )
         7           Ge  tau(   7) = (   0.0000000   0.5000000   0.5000000  )
         8           Ge  tau(   8) = (   0.7500000   0.7500000   0.2500000  )

     number of k points=     4  Methfessel-Paxton smearing, width (Ry)=  0.0200
                       cart. coord. in units 2pi/alat
        k(    1) = (   0.1250000   0.1250000   0.1250000), wk =   0.1250000
        k(    2) = (   0.1250000   0.1250000   0.3750000), wk =   0.3750000
        k(    3) = (   0.1250000   0.3750000   0.3750000), wk =   0.3750000
        k(    4) = (   0.3750000   0.3750000   0.3750000), wk =   0.1250000

     Dense  grid:    80581 G-vectors     FFT dimensions: (  54,  54,  54)

     Smooth grid:    47401 G-vectors     FFT dimensions: (  45,  45,  45)

     Estimated max dynamical RAM per process >     204.02 MB

     Estimated total dynamical RAM >     408.05 MB
     Generating pointlists ...
     new r_m :   0.1786 (alat units)  1.9452 (a.u.) for type    1

     Check: negative core charge=   -0.000002

     Initial potential from superposition of free atoms

     starting charge  111.99387, renormalised to  112.00000

     negative rho (up, down):  0.000E+00 2.803E-01
     Starting wfcs are   72 randomized atomic wfcs
     Checking if some PAW data can be deallocated... 

     total cpu time spent up to now is        9.9 secs

     Self-consistent Calculation

     iteration #  1     ecut=    42.00 Ry     beta= 0.70
     Davidson diagonalization with overlap
     ethr =  1.00E-02,  avg # of iterations =  3.8

     total cpu time spent up to now is       20.4 secs

     total energy              =   -2520.72804466 Ry
     Harris-Foulkes estimate   =   -2500.77793286 Ry
     estimated scf accuracy    <      62.95680769 Ry

     total magnetization       =    11.66 Bohr mag/cell
     absolute magnetization    =    11.66 Bohr mag/cell

     iteration #  2     ecut=    42.00 Ry     beta= 0.70
     Davidson diagonalization with overlap
     ethr =  1.00E-02,  avg # of iterations =  1.0

     total cpu time spent up to now is       29.1 secs

     total energy              =   -2524.16981177 Ry
     Harris-Foulkes estimate   =   -2521.65539544 Ry
     estimated scf accuracy    <       6.86131839 Ry

     total magnetization       =     1.71 Bohr mag/cell
     absolute magnetization    =     1.71 Bohr mag/cell

     iteration #  3     ecut=    42.00 Ry     beta= 0.70
     Davidson diagonalization with overlap
     ethr =  6.13E-03,  avg # of iterations =  1.0

     total cpu time spent up to now is       38.6 secs

     total energy              =   -2524.30249912 Ry
     Harris-Foulkes estimate   =   -2524.30064568 Ry
     estimated scf accuracy    <       0.00335216 Ry

     total magnetization       =     0.02 Bohr mag/cell
     absolute magnetization    =     0.15 Bohr mag/cell

     iteration #  4     ecut=    42.00 Ry     beta= 0.70
     Davidson diagonalization with overlap
     ethr =  2.99E-06,  avg # of iterations =  5.9

     total cpu time spent up to now is       54.3 secs

     total energy              =   -2524.30518734 Ry
     Harris-Foulkes estimate   =   -2524.30503901 Ry
     estimated scf accuracy    <       0.00022840 Ry

     total magnetization       =     0.01 Bohr mag/cell
     absolute magnetization    =     0.04 Bohr mag/cell

     iteration #  5     ecut=    42.00 Ry     beta= 0.70
     Davidson diagonalization with overlap
     ethr =  2.04E-07,  avg # of iterations =  2.0

     total cpu time spent up to now is       66.7 secs

     total energy              =   -2524.30528117 Ry
     Harris-Foulkes estimate   =   -2524.30525571 Ry
     estimated scf accuracy    <       0.00003655 Ry

     total magnetization       =     0.00 Bohr mag/cell
     absolute magnetization    =     0.02 Bohr mag/cell

     iteration #  6     ecut=    42.00 Ry     beta= 0.70
     Davidson diagonalization with overlap
     ethr =  3.26E-08,  avg # of iterations =  3.0

     total cpu time spent up to now is       78.1 secs

     total energy              =   -2524.30529701 Ry
     Harris-Foulkes estimate   =   -2524.30529536 Ry
     estimated scf accuracy    <       0.00001141 Ry

     total magnetization       =     0.00 Bohr mag/cell
     absolute magnetization    =     0.01 Bohr mag/cell

     iteration #  7     ecut=    42.00 Ry     beta= 0.70
     Davidson diagonalization with overlap
     ethr =  1.02E-08,  avg # of iterations =  2.8

     Magnetic moment per site:
     atom:    1    charge:   11.8970    magn:    0.0001    constr:    0.0000
     atom:    2    charge:   11.8985    magn:    0.0001    constr:    0.0000
     atom:    3    charge:   11.8970    magn:    0.0001    constr:    0.0000
     atom:    4    charge:   11.8985    magn:    0.0001    constr:    0.0000
     atom:    5    charge:   11.8972    magn:    0.0002    constr:    0.0000
     atom:    6    charge:   11.8985    magn:    0.0001    constr:    0.0000
     atom:    7    charge:   11.8970    magn:    0.0001    constr:    0.0000
     atom:    8    charge:   11.8985    magn:    0.0001    constr:    0.0000

     total cpu time spent up to now is       89.2 secs

     End of self-consistent calculation

 ------ SPIN UP ------------


          k = 0.1250 0.1250 0.1250 (  5923 PWs)   bands (ev):

   -17.0033 -17.0030 -17.0030 -16.9968 -16.9968 -16.9964 -16.9746 -16.9746
   -16.9654 -16.9326 -16.9326 -16.9324 -16.9271 -16.9271 -16.8915 -16.8915
   -16.8915 -16.8582 -16.8582 -16.8579 -16.8207 -16.8207 -16.8204 -16.8177
   -16.8177 -16.8176 -16.7771 -16.7771 -16.7768 -16.7650 -16.7650 -16.7557
   -16.7349 -16.7349 -16.7085 -16.7085 -16.7081 -16.7028 -16.7025 -16.7025
    -4.4086  -1.6870  -1.6866  -1.6866  -0.0346  -0.0343  -0.0343   4.4411
     4.4413   4.4413   5.0578   5.0578   5.0579   5.3282   7.4642   7.4642
     8.5772   8.7307   8.7307   8.7307   9.7228   9.7228   9.7229  10.7237
    10.7237  11.1044  14.9731

          k = 0.1250 0.1250 0.3750 (  5947 PWs)   bands (ev):

   -17.0103 -17.0101 -17.0022 -17.0020 -16.9962 -16.9895 -16.9859 -16.9798
   -16.9648 -16.9561 -16.9171 -16.9139 -16.9139 -16.8993 -16.8926 -16.8668
   -16.8668 -16.8603 -16.8603 -16.8599 -16.8467 -16.8388 -16.8386 -16.8224
   -16.8223 -16.8016 -16.7942 -16.7941 -16.7873 -16.7661 -16.7528 -16.7491
   -16.7334 -16.7225 -16.7196 -16.7122 -16.7036 -16.7035 -16.6961 -16.6959
    -3.9347  -3.0090  -1.5853  -1.5850  -0.0977  -0.0975   1.7583   3.5848
     3.9032   3.9033   4.8918   4.8918   5.0986   5.5391   6.3382   6.4352
     9.0766   9.5931  10.0320  10.0321  10.2298  10.3849  11.8448  11.8448
    12.2123  12.5024  12.7665

          k = 0.1250 0.3750 0.3750 (  5948 PWs)   bands (ev):

   -17.0099 -17.0028 -17.0027 -16.9971 -16.9961 -16.9958 -16.9912 -16.9895
   -16.9494 -16.9340 -16.9339 -16.9236 -16.9099 -16.8949 -16.8930 -16.8926
   -16.8755 -16.8704 -16.8701 -16.8680 -16.8280 -16.8278 -16.8250 -16.8168
   -16.7961 -16.7916 -16.7912 -16.7876 -16.7823 -16.7801 -16.7799 -16.7650
   -16.7223 -16.7156 -16.7115 -16.7112 -16.7085 -16.7052 -16.7051 -16.6973
    -3.4943  -2.6609  -2.6606  -2.0846   0.3436   1.0768   1.0769   2.3430
     3.8806   4.4424   4.4424   5.3706   5.8128   5.8131   5.8233   6.9036
     9.2243   9.3575  10.0806  10.0808  11.1243  11.1244  11.4773  11.6521
    12.5966  12.5967  12.6043

          k = 0.3750 0.3750 0.3750 (  5926 PWs)   bands (ev):

   -16.9996 -16.9992 -16.9992 -16.9910 -16.9910 -16.9907 -16.9879 -16.9879
   -16.9543 -16.9410 -16.9410 -16.9408 -16.9031 -16.9031 -16.8940 -16.8940
   -16.8937 -16.8905 -16.8905 -16.8903 -16.8029 -16.8029 -16.8028 -16.7912
   -16.7912 -16.7909 -16.7843 -16.7843 -16.7766 -16.7766 -16.7764 -16.7684
   -16.7205 -16.7205 -16.7169 -16.7169 -16.7166 -16.7088 -16.7084 -16.7084
    -3.1284  -2.5374  -2.5370  -2.5370   0.5191   0.5191   0.5191   1.2818
     5.2467   5.2470   5.2470   6.1278   6.1278   6.1280   6.5820   6.5820
     7.9229   9.0276   9.0277   9.0277  11.2829  11.2831  11.2831  11.5073
    11.5073  12.1710  12.1711

 ------ SPIN DOWN ----------


          k = 0.1250 0.1250 0.1250 (  5923 PWs)   bands (ev):

   -17.0031 -17.0028 -17.0028 -16.9966 -16.9966 -16.9962 -16.9744 -16.9744
   -16.9652 -16.9324 -16.9324 -16.9322 -16.9269 -16.9269 -16.8914 -16.8914
   -16.8913 -16.8581 -16.8581 -16.8578 -16.8206 -16.8206 -16.8202 -16.8176
   -16.8176 -16.8175 -16.7770 -16.7770 -16.7767 -16.7649 -16.7649 -16.7556
   -16.7348 -16.7348 -16.7083 -16.7083 -16.7080 -16.7027 -16.7024 -16.7024
    -4.4082  -1.6863  -1.6859  -1.6859  -0.0338  -0.0335  -0.0335   4.4411
     4.4412   4.4412   5.0582   5.0582   5.0584   5.3289   7.4655   7.4655
     8.5770   8.7287   8.7287   8.7287   9.7212   9.7212   9.7213  10.7232
    10.7232  11.1042  14.9700

          k = 0.1250 0.1250 0.3750 (  5947 PWs)   bands (ev):

   -17.0101 -17.0099 -17.0020 -17.0018 -16.9960 -16.9893 -16.9857 -16.9796
   -16.9646 -16.9559 -16.9170 -16.9138 -16.9138 -16.8992 -16.8924 -16.8667
   -16.8666 -16.8601 -16.8601 -16.8597 -16.8466 -16.8386 -16.8385 -16.8223
   -16.8222 -16.8014 -16.7940 -16.7940 -16.7872 -16.7659 -16.7526 -16.7490
   -16.7333 -16.7224 -16.7195 -16.7121 -16.7035 -16.7034 -16.6960 -16.6958
    -3.9343  -3.0085  -1.5846  -1.5843  -0.0969  -0.0967   1.7591   3.5856
     3.9028   3.9029   4.8919   4.8920   5.0987   5.5396   6.3387   6.4360
     9.0750   9.5925  10.0307  10.0307  10.2293  10.3837  11.8438  11.8439
    12.2121  12.5017  12.7653

          k = 0.1250 0.3750 0.3750 (  5948 PWs)   bands (ev):

   -17.0097 -17.0027 -17.0025 -16.9969 -16.9959 -16.9956 -16.9911 -16.9893
   -16.9492 -16.9338 -16.9337 -16.9235 -16.9097 -16.8947 -16.8928 -16.8924
   -16.8754 -16.8702 -16.8699 -16.8678 -16.8278 -16.8277 -16.8248 -16.8167
   -16.7960 -16.7915 -16.7911 -16.7874 -16.7822 -16.7799 -16.7797 -16.7648
   -16.7222 -16.7155 -16.7113 -16.7111 -16.7084 -16.7051 -16.7049 -16.6972
    -3.4937  -2.6602  -2.6600  -2.0839   0.3443   1.0775   1.0776   2.3436
     3.8802   4.4422   4.4422   5.3707   5.8134   5.8136   5.8240   6.9048
     9.2238   9.3560  10.0800  10.0801  11.1231  11.1233  11.4765  11.6513
    12.5952  12.5953  12.6035

          k = 0.3750 0.3750 0.3750 (  5926 PWs)   bands (ev):

   -16.9994 -16.9990 -16.9990 -16.9908 -16.9908 -16.9905 -16.9877 -16.9877
   -16.9542 -16.9408 -16.9408 -16.9407 -16.9030 -16.9030 -16.8939 -16.8939
   -16.8935 -16.8904 -16.8904 -16.8902 -16.8028 -16.8028 -16.8027 -16.7911
   -16.7911 -16.7908 -16.7842 -16.7842 -16.7765 -16.7765 -16.7762 -16.7682
   -16.7204 -16.7204 -16.7168 -16.7168 -16.7164 -16.7087 -16.7083 -16.7083
    -3.1278  -2.5367  -2.5363  -2.5363   0.5194   0.5194   0.5194   1.2821
     5.2469   5.2472   5.2472   6.1287   6.1287   6.1288   6.5831   6.5831
     7.9219   9.0271   9.0272   9.0272  11.2815  11.2817  11.2817  11.5063
    11.5063  12.1700  12.1701

     the Fermi energy is     7.6936 ev

!    total energy              =   -2524.30530079 Ry
     Harris-Foulkes estimate   =   -2524.30530020 Ry
     estimated scf accuracy    <       0.00000029 Ry

     total all-electron energy =    -33583.958310 Ry

     The total energy is the sum of the following terms:

     one-electron contribution =   -1163.96683449 Ry
     hartree contribution      =     662.86329533 Ry
     xc contribution           =    -313.45285816 Ry
     ewald contribution        =    -775.60359605 Ry
     one-center paw contrib.   =    -934.14574642 Ry
     smearing contrib. (-TS)   =       0.00043899 Ry

     total magnetization       =     0.00 Bohr mag/cell
     absolute magnetization    =     0.00 Bohr mag/cell

     convergence has been achieved in   7 iterations

     Forces acting on atoms (cartesian axes, Ry/au):

     atom    1 type  1   force =     0.00000000    0.00000000    0.00000000
     atom    2 type  1   force =     0.00024070    0.00024070    0.00024070
     atom    3 type  1   force =     0.00000000    0.00000000    0.00000000
     atom    4 type  1   force =     0.00024070   -0.00024070   -0.00024070
     atom    5 type  1   force =     0.00000000    0.00000000    0.00000000
     atom    6 type  1   force =    -0.00024070    0.00024070   -0.00024070
     atom    7 type  1   force =     0.00000000    0.00000000    0.00000000
     atom    8 type  1   force =    -0.00024070   -0.00024070    0.00024070

     Total force =     0.000834     Total SCF correction =     0.001385
     SCF correction compared to forces is large: reduce conv_thr to get better values


     Computing stress (Cartesian axis) and pressure

          total   stress  (Ry/bohr**3)                   (kbar)     P=    2.26
   0.00001539   0.00000000   0.00000000          2.26      0.00      0.00
   0.00000000   0.00001539   0.00000000          0.00      2.26      0.00
   0.00000000   0.00000000   0.00001539          0.00      0.00      2.26


     BFGS Geometry Optimization

     number of scf cycles    =   1
     number of bfgs steps    =   0

     enthalpy new            =   -2524.3053007943 Ry

     new trust radius        =       0.0027649613 bohr
     new conv_thr            =       0.0000010000 Ry

     new unit-cell volume =   1293.03987 a.u.^3 (   191.60874 Ang^3 )
     density =      5.03547 g/cm^3

CELL_PARAMETERS (alat= 10.89022714)
   1.000384684   0.000000000   0.000000000
   0.000000000   1.000384684   0.000000000
   0.000000000   0.000000000   1.000384684

ATOMIC_POSITIONS (crystal)
Ge       0.500000000   0.000000000   0.500000000
Ge       0.250022102   0.250022102   0.250022102
Ge       0.500000000   0.500000000   0.000000000
Ge       0.250022102   0.749977898   0.749977898
Ge       0.000000000   0.000000000   0.000000000
Ge       0.749977898   0.250022102   0.749977898
Ge       0.000000000   0.500000000   0.500000000
Ge       0.749977898   0.749977898   0.250022102



     Writing output data file pw.save/
     NEW-OLD atomic charge density approx. for the potential

     Check: negative core charge=   -0.000002
     extrapolated charge  112.12915, renormalised to  112.00000

     total cpu time spent up to now is      115.1 secs

     Self-consistent Calculation

     iteration #  1     ecut=    42.00 Ry     beta= 0.70
     Davidson diagonalization with overlap
     ethr =  1.00E-06,  avg # of iterations =  3.0

     total cpu time spent up to now is      129.8 secs

     total energy              =   -2524.30402513 Ry
     Harris-Foulkes estimate   =   -2523.05128203 Ry
     estimated scf accuracy    <       0.00069711 Ry

     total magnetization       =     0.00 Bohr mag/cell
     absolute magnetization    =     0.00 Bohr mag/cell

     iteration #  2     ecut=    42.00 Ry     beta= 0.70
     Davidson diagonalization with overlap
     ethr =  6.22E-07,  avg # of iterations =  3.0

     total cpu time spent up to now is      144.7 secs

     total energy              =   -2524.30526477 Ry
     Harris-Foulkes estimate   =   -2524.30597800 Ry
     estimated scf accuracy    <       0.00138907 Ry

     total magnetization       =     0.00 Bohr mag/cell
     absolute magnetization    =     0.00 Bohr mag/cell

     iteration #  3     ecut=    42.00 Ry     beta= 0.70
     Davidson diagonalization with overlap
     ethr =  6.22E-07,  avg # of iterations =  2.0

     total cpu time spent up to now is      157.2 secs

     total energy              =   -2524.30532003 Ry
     Harris-Foulkes estimate   =   -2524.30539168 Ry
     estimated scf accuracy    <       0.00023372 Ry

     total magnetization       =     0.00 Bohr mag/cell
     absolute magnetization    =     0.00 Bohr mag/cell

     iteration #  4     ecut=    42.00 Ry     beta= 0.70
     Davidson diagonalization with overlap
     ethr =  2.09E-07,  avg # of iterations =  1.0

     total cpu time spent up to now is      167.0 secs

     total energy              =   -2524.30529197 Ry
     Harris-Foulkes estimate   =   -2524.30532827 Ry
     estimated scf accuracy    <       0.00010293 Ry

     total magnetization       =     0.00 Bohr mag/cell
     absolute magnetization    =     0.00 Bohr mag/cell

     iteration #  5     ecut=    42.00 Ry     beta= 0.70
     Davidson diagonalization with overlap
     ethr =  9.19E-08,  avg # of iterations =  1.0

     total cpu time spent up to now is      176.7 secs

     total energy              =   -2524.30528207 Ry
     Harris-Foulkes estimate   =   -2524.30529723 Ry
     estimated scf accuracy    <       0.00003592 Ry

     total magnetization       =     0.00 Bohr mag/cell
     absolute magnetization    =     0.00 Bohr mag/cell

     iteration #  6     ecut=    42.00 Ry     beta= 0.70
     Davidson diagonalization with overlap
     ethr =  3.21E-08,  avg # of iterations =  2.0

     total cpu time spent up to now is      187.0 secs

     total energy              =   -2524.30528509 Ry
     Harris-Foulkes estimate   =   -2524.30528517 Ry
     estimated scf accuracy    <       0.00000784 Ry

     total magnetization       =     0.00 Bohr mag/cell
     absolute magnetization    =     0.00 Bohr mag/cell

     iteration #  7     ecut=    42.00 Ry     beta= 0.70
     Davidson diagonalization with overlap
     ethr =  7.00E-09,  avg # of iterations =  1.0

     total cpu time spent up to now is      196.8 secs

     total energy              =   -2524.30528276 Ry
     Harris-Foulkes estimate   =   -2524.30528530 Ry
     estimated scf accuracy    <       0.00000851 Ry

     total magnetization       =     0.00 Bohr mag/cell
     absolute magnetization    =     0.00 Bohr mag/cell

     iteration #  8     ecut=    42.00 Ry     beta= 0.70
     Davidson diagonalization with overlap
     ethr =  7.00E-09,  avg # of iterations =  1.6

     total cpu time spent up to now is      207.0 secs

     total energy              =   -2524.30528236 Ry
     Harris-Foulkes estimate   =   -2524.30528323 Ry
     estimated scf accuracy    <       0.00000294 Ry

     total magnetization       =     0.00 Bohr mag/cell
     absolute magnetization    =     0.00 Bohr mag/cell

     iteration #  9     ecut=    42.00 Ry     beta= 0.70
     Davidson diagonalization with overlap
     ethr =  2.62E-09,  avg # of iterations =  1.0

     total cpu time spent up to now is      216.8 secs

     total energy              =   -2524.30528201 Ry
     Harris-Foulkes estimate   =   -2524.30528249 Ry
     estimated scf accuracy    <       0.00000118 Ry

     total magnetization       =     0.00 Bohr mag/cell
     absolute magnetization    =     0.00 Bohr mag/cell

     iteration # 10     ecut=    42.00 Ry     beta= 0.70
     Davidson diagonalization with overlap
     ethr =  1.06E-09,  avg # of iterations =  1.1

     Magnetic moment per site:
     atom:    1    charge:   11.8984    magn:    0.0000    constr:    0.0000
     atom:    2    charge:   11.8998    magn:   -0.0000    constr:    0.0000
     atom:    3    charge:   11.8984    magn:    0.0000    constr:    0.0000
     atom:    4    charge:   11.8998    magn:   -0.0000    constr:    0.0000
     atom:    5    charge:   11.8982    magn:   -0.0000    constr:    0.0000
     atom:    6    charge:   11.8998    magn:   -0.0000    constr:    0.0000
     atom:    7    charge:   11.8984    magn:    0.0000    constr:    0.0000
     atom:    8    charge:   11.8998    magn:   -0.0000    constr:    0.0000

     total cpu time spent up to now is      226.7 secs

     End of self-consistent calculation

 ------ SPIN UP ------------


          k = 0.1250 0.1250 0.1250 (  5923 PWs)   bands (ev):

   -17.0166 -17.0166 -17.0164 -17.0103 -17.0101 -17.0101 -16.9882 -16.9882
   -16.9790 -16.9463 -16.9462 -16.9462 -16.9408 -16.9408 -16.9053 -16.9053
   -16.9053 -16.8722 -16.8721 -16.8721 -16.8348 -16.8346 -16.8346 -16.8318
   -16.8318 -16.8318 -16.7913 -16.7912 -16.7912 -16.7793 -16.7793 -16.7700
   -16.7493 -16.7493 -16.7228 -16.7228 -16.7228 -16.7171 -16.7171 -16.7170
    -4.4145  -1.6959  -1.6959  -1.6951  -0.0453  -0.0453  -0.0450   4.4315
     4.4315   4.4318   5.0472   5.0475   5.0475   5.3121   7.4512   7.4512
     8.5582   8.7162   8.7170   8.7170   9.7073   9.7081   9.7081  10.7080
    10.7080  11.0870  14.9545

          k = 0.1250 0.1250 0.3749 (  5947 PWs)   bands (ev):

   -17.0237 -17.0236 -17.0156 -17.0156 -17.0097 -17.0031 -16.9994 -16.9934
   -16.9784 -16.9697 -16.9309 -16.9277 -16.9277 -16.9131 -16.9064 -16.8807
   -16.8807 -16.8742 -16.8742 -16.8739 -16.8607 -16.8528 -16.8527 -16.8365
   -16.8365 -16.8157 -16.8083 -16.8083 -16.8016 -16.7803 -16.7671 -16.7634
   -16.7478 -16.7369 -16.7340 -16.7267 -16.7180 -16.7180 -16.7105 -16.7104
    -3.9411  -3.0165  -1.5947  -1.5941  -0.1083  -0.1082   1.7456   3.5705
     3.8941   3.8943   4.8817   4.8818   5.0881   5.5282   6.3259   6.4234
     9.0622   9.5763  10.0160  10.0165  10.2122  10.3680  11.8265  11.8270
    12.1950  12.4849  12.7494

          k = 0.1250 0.3749 0.3749 (  5948 PWs)   bands (ev):

   -17.0234 -17.0163 -17.0162 -17.0106 -17.0095 -17.0094 -17.0048 -17.0030
   -16.9630 -16.9477 -16.9476 -16.9374 -16.9237 -16.9087 -16.9067 -16.9065
   -16.8894 -16.8842 -16.8841 -16.8819 -16.8420 -16.8419 -16.8390 -16.8309
   -16.8103 -16.8057 -16.8056 -16.8018 -16.7965 -16.7942 -16.7941 -16.7792
   -16.7367 -16.7301 -16.7258 -16.7257 -16.7230 -16.7196 -16.7196 -16.7118
    -3.5012  -2.6690  -2.6684  -2.0934   0.3330   1.0653   1.0655   2.3305
     3.8714   4.4323   4.4325   5.3595   5.8013   5.8021   5.8121   6.8911
     9.2060   9.3416  10.0629  10.0629  11.1079  11.1082  11.4611  11.6356
    12.5798  12.5802  12.5855

          k = 0.3749 0.3749 0.3749 (  5926 PWs)   bands (ev):

   -17.0129 -17.0129 -17.0127 -17.0045 -17.0044 -17.0044 -17.0014 -17.0014
   -16.9680 -16.9547 -16.9546 -16.9546 -16.9169 -16.9169 -16.9078 -16.9077
   -16.9077 -16.9044 -16.9043 -16.9043 -16.8170 -16.8170 -16.8170 -16.8054
   -16.8053 -16.8053 -16.7985 -16.7985 -16.7908 -16.7907 -16.7907 -16.7826
   -16.7349 -16.7349 -16.7313 -16.7312 -16.7312 -16.7230 -16.7230 -16.7229
    -3.1358  -2.5457  -2.5457  -2.5447   0.5089   0.5094   0.5094   1.2712
     5.2351   5.2351   5.2358   6.1161   6.1164   6.1164   6.5699   6.5699
     7.9050   9.0101   9.0103   9.0103  11.2672  11.2674  11.2674  11.4914
    11.4914  12.1545  12.1548

 ------ SPIN DOWN ----------


          k = 0.1250 0.1250 0.1250 (  5923 PWs)   bands (ev):

   -17.0166 -17.0166 -17.0164 -17.0103 -17.0101 -17.0101 -16.9882 -16.9882
   -16.9790 -16.9463 -16.9462 -16.9462 -16.9408 -16.9408 -16.9053 -16.9053
   -16.9053 -16.8722 -16.8721 -16.8721 -16.8348 -16.8346 -16.8346 -16.8318
   -16.8318 -16.8318 -16.7913 -16.7912 -16.7912 -16.7793 -16.7793 -16.7700
   -16.7493 -16.7493 -16.7228 -16.7228 -16.7228 -16.7171 -16.7171 -16.7170
    -4.4145  -1.6959  -1.6959  -1.6951  -0.0453  -0.0453  -0.0450   4.4315
     4.4315   4.4318   5.0472   5.0475   5.0475   5.3121   7.4512   7.4512
     8.5582   8.7162   8.7170   8.7170   9.7073   9.7081   9.7081  10.7080
    10.7080  11.0870  14.9545

          k = 0.1250 0.1250 0.3749 (  5947 PWs)   bands (ev):

   -17.0237 -17.0236 -17.0156 -17.0156 -17.0097 -17.0031 -16.9994 -16.9934
   -16.9784 -16.9697 -16.9309 -16.9277 -16.9277 -16.9131 -16.9064 -16.8807
   -16.8807 -16.8742 -16.8742 -16.8739 -16.8607 -16.8527 -16.8527 -16.8365
   -16.8365 -16.8157 -16.8083 -16.8083 -16.8016 -16.7803 -16.7671 -16.7634
   -16.7478 -16.7369 -16.7340 -16.7267 -16.7180 -16.7180 -16.7105 -16.7104
    -3.9411  -3.0165  -1.5947  -1.5941  -0.1083  -0.1082   1.7456   3.5705
     3.8941   3.8943   4.8817   4.8818   5.0881   5.5282   6.3259   6.4234
     9.0622   9.5763  10.0160  10.0165  10.2122  10.3680  11.8265  11.8270
    12.1950  12.4849  12.7498

          k = 0.1250 0.3749 0.3749 (  5948 PWs)   bands (ev):

   -17.0234 -17.0163 -17.0162 -17.0106 -17.0095 -17.0094 -17.0048 -17.0030
   -16.9630 -16.9477 -16.9476 -16.9374 -16.9237 -16.9087 -16.9067 -16.9065
   -16.8894 -16.8842 -16.8841 -16.8819 -16.8420 -16.8419 -16.8390 -16.8309
   -16.8103 -16.8057 -16.8056 -16.8018 -16.7965 -16.7942 -16.7941 -16.7792
   -16.7367 -16.7301 -16.7258 -16.7257 -16.7230 -16.7196 -16.7196 -16.7118
    -3.5012  -2.6689  -2.6684  -2.0934   0.3330   1.0653   1.0655   2.3305
     3.8714   4.4323   4.4325   5.3595   5.8013   5.8021   5.8121   6.8911
     9.2060   9.3416  10.0629  10.0629  11.1079  11.1082  11.4611  11.6356
    12.5798  12.5802  12.5855

          k = 0.3749 0.3749 0.3749 (  5926 PWs)   bands (ev):

   -17.0129 -17.0129 -17.0127 -17.0045 -17.0044 -17.0044 -17.0014 -17.0014
   -16.9680 -16.9547 -16.9546 -16.9546 -16.9169 -16.9169 -16.9078 -16.9077
   -16.9077 -16.9044 -16.9043 -16.9043 -16.8170 -16.8170 -16.8170 -16.8054
   -16.8053 -16.8053 -16.7985 -16.7985 -16.7908 -16.7907 -16.7907 -16.7826
   -16.7349 -16.7349 -16.7312 -16.7312 -16.7312 -16.7230 -16.7230 -16.7229
    -3.1358  -2.5457  -2.5457  -2.5447   0.5089   0.5094   0.5094   1.2712
     5.2351   5.2351   5.2358   6.1161   6.1164   6.1164   6.5699   6.5699
     7.9050   9.0101   9.0103   9.0103  11.2672  11.2674  11.2674  11.4914
    11.4914  12.1547  12.1548

     the Fermi energy is     7.6786 ev

!    total energy              =   -2524.30528171 Ry
     Harris-Foulkes estimate   =   -2524.30528208 Ry
     estimated scf accuracy    <       0.00000036 Ry

     total all-electron energy =    -33583.958291 Ry

     The total energy is the sum of the following terms:

     one-electron contribution =   -1164.46855584 Ry
     hartree contribution      =     663.06227994 Ry
     xc contribution           =    -313.44912319 Ry
     ewald contribution        =    -775.30534345 Ry
     one-center paw contrib.   =    -934.14496147 Ry
     smearing contrib. (-TS)   =       0.00042230 Ry

     total magnetization       =     0.00 Bohr mag/cell
     absolute magnetization    =     0.00 Bohr mag/cell

     convergence has been achieved in  10 iterations

     Forces acting on atoms (cartesian axes, Ry/au):

     atom    1 type  1   force =     0.00000000    0.00000000    0.00000000
     atom    2 type  1   force =    -0.00006941   -0.00006941   -0.00006941
     atom    3 type  1   force =     0.00000000    0.00000000    0.00000000
     atom    4 type  1   force =    -0.00006941    0.00006941    0.00006941
     atom    5 type  1   force =     0.00000000    0.00000000    0.00000000
     atom    6 type  1   force =     0.00006941   -0.00006941    0.00006941
     atom    7 type  1   force =     0.00000000    0.00000000    0.00000000
     atom    8 type  1   force =     0.00006941    0.00006941   -0.00006941

     Total force =     0.000240     Total SCF correction =     0.000022


     Computing stress (Cartesian axis) and pressure

          total   stress  (Ry/bohr**3)                   (kbar)     P=    4.21
   0.00002862   0.00000000   0.00000000          4.21      0.00      0.00
   0.00000000   0.00002862   0.00000000          0.00      4.21      0.00
   0.00000000   0.00000000   0.00002862          0.00      0.00      4.21


     number of scf cycles    =   2
     number of bfgs steps    =   1

     enthalpy old            =   -2524.3053007943 Ry
     enthalpy new            =   -2524.3052817099 Ry

     CASE: enthalpy_new > enthalpy_old

     new trust radius        =       0.0007649510 bohr
     new conv_thr            =       0.0000010000 Ry

     new unit-cell volume =   1291.96111 a.u.^3 (   191.44888 Ang^3 )
     density =      5.03967 g/cm^3

CELL_PARAMETERS (alat= 10.89022714)
   1.000106406   0.000000000   0.000000000
   0.000000000   1.000106406   0.000000000
   0.000000000   0.000000000   1.000106406

ATOMIC_POSITIONS (crystal)
Ge       0.500000000   0.000000000   0.500000000
Ge       0.250006114   0.250006114   0.250006114
Ge       0.500000000   0.500000000   0.000000000
Ge       0.250006114   0.749993886   0.749993886
Ge       0.000000000   0.000000000   0.000000000
Ge       0.749993886   0.250006114   0.749993886
Ge       0.000000000   0.500000000   0.500000000
Ge       0.749993886   0.749993886   0.250006114



     Writing output data file pw.save/
     NEW-OLD atomic charge density approx. for the potential

     Check: negative core charge=   -0.000002
     extrapolated charge  111.90649, renormalised to  112.00000

     total cpu time spent up to now is      252.4 secs

     Self-consistent Calculation

     iteration #  1     ecut=    42.00 Ry     beta= 0.70
     Davidson diagonalization with overlap
     ethr =  1.00E-06,  avg # of iterations =  2.0

     total cpu time spent up to now is      265.1 secs

     total energy              =   -2524.30467174 Ry
     Harris-Foulkes estimate   =   -2525.21332138 Ry
     estimated scf accuracy    <       0.00033015 Ry

     total magnetization       =     0.00 Bohr mag/cell
     absolute magnetization    =     0.00 Bohr mag/cell

     iteration #  2     ecut=    42.00 Ry     beta= 0.70
     Davidson diagonalization with overlap
     ethr =  2.95E-07,  avg # of iterations =  3.0

     total cpu time spent up to now is      281.1 secs

     total energy              =   -2524.30529229 Ry
     Harris-Foulkes estimate   =   -2524.30564692 Ry
     estimated scf accuracy    <       0.00070198 Ry

     total magnetization       =     0.00 Bohr mag/cell
     absolute magnetization    =     0.00 Bohr mag/cell

     iteration #  3     ecut=    42.00 Ry     beta= 0.70
     Davidson diagonalization with overlap
     ethr =  2.95E-07,  avg # of iterations =  2.0

     total cpu time spent up to now is      293.1 secs

     total energy              =   -2524.30531498 Ry
     Harris-Foulkes estimate   =   -2524.30535438 Ry
     estimated scf accuracy    <       0.00012362 Ry

     total magnetization       =     0.00 Bohr mag/cell
     absolute magnetization    =     0.00 Bohr mag/cell

     iteration #  4     ecut=    42.00 Ry     beta= 0.70
     Davidson diagonalization with overlap
     ethr =  1.10E-07,  avg # of iterations =  1.0

     total cpu time spent up to now is      303.2 secs

     total energy              =   -2524.30529163 Ry
     Harris-Foulkes estimate   =   -2524.30531966 Ry
     estimated scf accuracy    <       0.00005225 Ry

     total magnetization       =     0.00 Bohr mag/cell
     absolute magnetization    =     0.00 Bohr mag/cell

     iteration #  5     ecut=    42.00 Ry     beta= 0.70
     Davidson diagonalization with overlap
     ethr =  4.67E-08,  avg # of iterations =  2.0

     total cpu time spent up to now is      315.1 secs

     total energy              =   -2524.30529885 Ry
     Harris-Foulkes estimate   =   -2524.30529862 Ry
     estimated scf accuracy    <       0.00000545 Ry

     total magnetization       =     0.00 Bohr mag/cell
     absolute magnetization    =     0.00 Bohr mag/cell

     iteration #  6     ecut=    42.00 Ry     beta= 0.70
     Davidson diagonalization with overlap
     ethr =  4.87E-09,  avg # of iterations =  1.5

     total cpu time spent up to now is      326.1 secs

     total energy              =   -2524.30529722 Ry
     Harris-Foulkes estimate   =   -2524.30529891 Ry
     estimated scf accuracy    <       0.00000584 Ry

     total magnetization       =     0.00 Bohr mag/cell
     absolute magnetization    =     0.00 Bohr mag/cell

     iteration #  7     ecut=    42.00 Ry     beta= 0.70
     Davidson diagonalization with overlap
     ethr =  4.87E-09,  avg # of iterations =  1.0

     total cpu time spent up to now is      335.9 secs

     total energy              =   -2524.30529659 Ry
     Harris-Foulkes estimate   =   -2524.30529740 Ry
     estimated scf accuracy    <       0.00000266 Ry

     total magnetization       =    -0.00 Bohr mag/cell
     absolute magnetization    =     0.00 Bohr mag/cell

     iteration #  8     ecut=    42.00 Ry     beta= 0.70
     Davidson diagonalization with overlap
     ethr =  2.37E-09,  avg # of iterations =  1.0

     Magnetic moment per site:
     atom:    1    charge:   11.8973    magn:    0.0000    constr:    0.0000
     atom:    2    charge:   11.8987    magn:    0.0000    constr:    0.0000
     atom:    3    charge:   11.8973    magn:    0.0000    constr:    0.0000
     atom:    4    charge:   11.8987    magn:    0.0000    constr:    0.0000
     atom:    5    charge:   11.8972    magn:   -0.0000    constr:    0.0000
     atom:    6    charge:   11.8987    magn:    0.0000    constr:    0.0000
     atom:    7    charge:   11.8973    magn:    0.0000    constr:    0.0000
     atom:    8    charge:   11.8987    magn:    0.0000    constr:    0.0000

     total cpu time spent up to now is      345.7 secs

     End of self-consistent calculation

 ------ SPIN UP ------------


          k = 0.1250 0.1250 0.1250 (  5923 PWs)   bands (ev):

   -17.0012 -17.0012 -17.0012 -16.9948 -16.9948 -16.9948 -16.9728 -16.9728
   -16.9636 -16.9307 -16.9307 -16.9307 -16.9253 -16.9253 -16.8897 -16.8897
   -16.8897 -16.8564 -16.8564 -16.8564 -16.8189 -16.8189 -16.8189 -16.8160
   -16.8160 -16.8160 -16.7753 -16.7753 -16.7753 -16.7633 -16.7633 -16.7541
   -16.7333 -16.7333 -16.7067 -16.7067 -16.7067 -16.7010 -16.7009 -16.7009
    -4.4090  -1.6878  -1.6878  -1.6876  -0.0358  -0.0358  -0.0358   4.4394
     4.4394   4.4394   5.0560   5.0561   5.0561   5.3254   7.4623   7.4623
     8.5732   8.7268   8.7270   8.7270   9.7189   9.7191   9.7191  10.7200
    10.7200  11.1007  14.9680

          k = 0.1250 0.1250 0.3750 (  5947 PWs)   bands (ev):

   -17.0084 -17.0083 -17.0003 -17.0003 -16.9943 -16.9877 -16.9841 -16.9780
   -16.9630 -16.9543 -16.9154 -16.9121 -16.9121 -16.8976 -16.8908 -16.8651
   -16.8651 -16.8585 -16.8585 -16.8582 -16.8450 -16.8370 -16.8370 -16.8207
   -16.8207 -16.7999 -16.7924 -16.7924 -16.7857 -16.7644 -16.7511 -16.7475
   -16.7318 -16.7209 -16.7179 -16.7106 -16.7019 -16.7019 -16.6944 -16.6943
    -3.9352  -3.0097  -1.5863  -1.5862  -0.0990  -0.0990   1.7564   3.5825
     3.9014   3.9014   4.8900   4.8900   5.0967   5.5372   6.3360   6.4333
     9.0729   9.5894  10.0281  10.0282  10.2258  10.3808  11.8404  11.8405
    12.2084  12.4983  12.7623

          k = 0.1250 0.3750 0.3750 (  5948 PWs)   bands (ev):

   -17.0081 -17.0009 -17.0009 -16.9953 -16.9941 -16.9941 -16.9894 -16.9876
   -16.9476 -16.9321 -16.9321 -16.9219 -16.9081 -16.8931 -16.8910 -16.8910
   -16.8738 -16.8685 -16.8685 -16.8663 -16.8262 -16.8262 -16.8233 -16.8151
   -16.7944 -16.7897 -16.7897 -16.7859 -16.7806 -16.7783 -16.7783 -16.7633
   -16.7207 -16.7140 -16.7097 -16.7097 -16.7069 -16.7035 -16.7035 -16.6957
    -3.4948  -2.6616  -2.6614  -2.0856   0.3421   1.0752   1.0752   2.3410
     3.8788   4.4404   4.4405   5.3685   5.8109   5.8111   5.8215   6.9017
     9.2203   9.3535  10.0766  10.0767  11.1203  11.1204  11.4734  11.6482
    12.5924  12.5925  12.5999

          k = 0.3750 0.3750 0.3750 (  5926 PWs)   bands (ev):

   -16.9975 -16.9975 -16.9975 -16.9891 -16.9891 -16.9891 -16.9861 -16.9861
   -16.9525 -16.9392 -16.9391 -16.9391 -16.9013 -16.9013 -16.8921 -16.8921
   -16.8921 -16.8887 -16.8887 -16.8887 -16.8012 -16.8012 -16.8012 -16.7895
   -16.7894 -16.7894 -16.7826 -16.7826 -16.7748 -16.7748 -16.7748 -16.7667
   -16.7188 -16.7188 -16.7151 -16.7151 -16.7151 -16.7069 -16.7069 -16.7069
    -3.1291  -2.5380  -2.5380  -2.5378   0.5175   0.5177   0.5177   1.2801
     5.2447   5.2447   5.2449   6.1260   6.1260   6.1260   6.5801   6.5801
     7.9188   9.0238   9.0239   9.0239  11.2789  11.2790  11.2790  11.5033
    11.5033  12.1670  12.1670

 ------ SPIN DOWN ----------


          k = 0.1250 0.1250 0.1250 (  5923 PWs)   bands (ev):

   -17.0012 -17.0012 -17.0012 -16.9948 -16.9948 -16.9948 -16.9728 -16.9728
   -16.9636 -16.9307 -16.9307 -16.9307 -16.9253 -16.9253 -16.8897 -16.8897
   -16.8897 -16.8564 -16.8564 -16.8564 -16.8189 -16.8189 -16.8189 -16.8160
   -16.8160 -16.8160 -16.7753 -16.7753 -16.7753 -16.7633 -16.7633 -16.7541
   -16.7333 -16.7333 -16.7067 -16.7067 -16.7067 -16.7010 -16.7009 -16.7009
    -4.4090  -1.6878  -1.6878  -1.6876  -0.0358  -0.0358  -0.0358   4.4394
     4.4394   4.4394   5.0560   5.0561   5.0561   5.3254   7.4623   7.4623
     8.5732   8.7268   8.7270   8.7270   9.7189   9.7191   9.7191  10.7200
    10.7200  11.1007  14.9680

          k = 0.1250 0.1250 0.3750 (  5947 PWs)   bands (ev):

   -17.0084 -17.0083 -17.0003 -17.0003 -16.9943 -16.9877 -16.9841 -16.9780
   -16.9630 -16.9543 -16.9154 -16.9121 -16.9121 -16.8976 -16.8908 -16.8651
   -16.8651 -16.8585 -16.8585 -16.8582 -16.8450 -16.8370 -16.8370 -16.8207
   -16.8207 -16.7999 -16.7924 -16.7924 -16.7857 -16.7644 -16.7511 -16.7475
   -16.7318 -16.7209 -16.7179 -16.7106 -16.7019 -16.7019 -16.6944 -16.6943
    -3.9352  -3.0097  -1.5863  -1.5862  -0.0990  -0.0990   1.7564   3.5825
     3.9014   3.9014   4.8900   4.8900   5.0967   5.5372   6.3360   6.4333
     9.0729   9.5894  10.0281  10.0282  10.2258  10.3808  11.8404  11.8405
    12.2084  12.4983  12.7624

          k = 0.1250 0.3750 0.3750 (  5948 PWs)   bands (ev):

   -17.0081 -17.0009 -17.0009 -16.9953 -16.9941 -16.9941 -16.9894 -16.9876
   -16.9476 -16.9321 -16.9321 -16.9219 -16.9081 -16.8931 -16.8910 -16.8910
   -16.8738 -16.8685 -16.8685 -16.8663 -16.8262 -16.8262 -16.8233 -16.8151
   -16.7944 -16.7897 -16.7897 -16.7859 -16.7806 -16.7783 -16.7783 -16.7633
   -16.7207 -16.7140 -16.7097 -16.7097 -16.7069 -16.7035 -16.7035 -16.6957
    -3.4948  -2.6616  -2.6614  -2.0856   0.3421   1.0752   1.0752   2.3410
     3.8788   4.4404   4.4405   5.3685   5.8109   5.8111   5.8215   6.9017
     9.2203   9.3535  10.0766  10.0767  11.1203  11.1204  11.4734  11.6482
    12.5924  12.5925  12.5999

          k = 0.3750 0.3750 0.3750 (  5926 PWs)   bands (ev):

   -16.9975 -16.9975 -16.9975 -16.9891 -16.9891 -16.9891 -16.9861 -16.9861
   -16.9525 -16.9392 -16.9391 -16.9391 -16.9013 -16.9013 -16.8921 -16.8921
   -16.8921 -16.8887 -16.8887 -16.8887 -16.8012 -16.8012 -16.8012 -16.7895
   -16.7894 -16.7894 -16.7826 -16.7826 -16.7748 -16.7748 -16.7748 -16.7667
   -16.7188 -16.7188 -16.7151 -16.7151 -16.7151 -16.7069 -16.7069 -16.7069
    -3.1291  -2.5380  -2.5380  -2.5378   0.5175   0.5177   0.5177   1.2801
     5.2447   5.2447   5.2449   6.1260   6.1260   6.1260   6.5801   6.5801
     7.9188   9.0238   9.0239   9.0239  11.2790  11.2790  11.2790  11.5033
    11.5033  12.1670  12.1670

     the Fermi energy is     7.6906 ev

!    total energy              =   -2524.30529603 Ry
     Harris-Foulkes estimate   =   -2524.30529675 Ry
     estimated scf accuracy    <       0.00000089 Ry

     total all-electron energy =    -33583.958305 Ry

     The total energy is the sum of the following terms:

     one-electron contribution =   -1164.07694210 Ry
     hartree contribution      =     662.88583869 Ry
     xc contribution           =    -313.44691620 Ry
     ewald contribution        =    -775.52107582 Ry
     one-center paw contrib.   =    -934.14663503 Ry
     smearing contrib. (-TS)   =       0.00043443 Ry

     total magnetization       =     0.00 Bohr mag/cell
     absolute magnetization    =     0.00 Bohr mag/cell

     convergence has been achieved in   8 iterations

     Forces acting on atoms (cartesian axes, Ry/au):

     atom    1 type  1   force =     0.00000000    0.00000000    0.00000000
     atom    2 type  1   force =    -0.00000452   -0.00000452   -0.00000452
     atom    3 type  1   force =     0.00000000    0.00000000    0.00000000
     atom    4 type  1   force =    -0.00000452    0.00000452    0.00000452
     atom    5 type  1   force =     0.00000000    0.00000000    0.00000000
     atom    6 type  1   force =     0.00000452   -0.00000452    0.00000452
     atom    7 type  1   force =     0.00000000    0.00000000    0.00000000
     atom    8 type  1   force =     0.00000452    0.00000452   -0.00000452

     Total force =     0.000016     Total SCF correction =     0.000087
     SCF correction compared to forces is large: reduce conv_thr to get better values


     Computing stress (Cartesian axis) and pressure

          total   stress  (Ry/bohr**3)                   (kbar)     P=  -11.92
  -0.00008103   0.00000000   0.00000000        -11.92      0.00      0.00
   0.00000000  -0.00008103   0.00000000          0.00    -11.92      0.00
   0.00000000   0.00000000  -0.00008103          0.00      0.00    -11.92


     number of scf cycles    =   3
     number of bfgs steps    =   1

     enthalpy old            =   -2524.3053007943 Ry
     enthalpy new            =   -2524.3052960348 Ry

     CASE: enthalpy_new > enthalpy_old

     new trust radius        =       0.0002212869 bohr
     new conv_thr            =       0.0000010000 Ry

     new unit-cell volume =   1291.66807 a.u.^3 (   191.40546 Ang^3 )
     density =      5.04082 g/cm^3

CELL_PARAMETERS (alat= 10.89022714)
   1.000030786   0.000000000   0.000000000
   0.000000000   1.000030786   0.000000000
   0.000000000   0.000000000   1.000030786

ATOMIC_POSITIONS (crystal)
Ge       0.500000000   0.000000000   0.500000000
Ge       0.250001769   0.250001769   0.250001769
Ge       0.500000000   0.500000000   0.000000000
Ge       0.250001769   0.749998231   0.749998231
Ge       0.000000000   0.000000000   0.000000000
Ge       0.749998231   0.250001769   0.749998231
Ge       0.000000000   0.500000000   0.500000000
Ge       0.749998231   0.749998231   0.250001769



     Writing output data file pw.save/
     NEW-OLD atomic charge density approx. for the potential

     Check: negative core charge=   -0.000002
     extrapolated charge  111.97459, renormalised to  112.00000

     total cpu time spent up to now is      371.2 secs

     Self-consistent Calculation

     iteration #  1     ecut=    42.00 Ry     beta= 0.70
     Davidson diagonalization with overlap
     ethr =  1.00E-06,  avg # of iterations =  2.0

     Threshold (ethr) on eigenvalues was too large:
     Diagonalizing with lowered threshold

     Davidson diagonalization with overlap
     ethr =  3.23E-08,  avg # of iterations =  1.0

     total cpu time spent up to now is      390.0 secs

     total energy              =   -2524.30524362 Ry
     Harris-Foulkes estimate   =   -2524.55197551 Ry
     estimated scf accuracy    <       0.00003618 Ry

     total magnetization       =     0.00 Bohr mag/cell
     absolute magnetization    =     0.00 Bohr mag/cell

     iteration #  2     ecut=    42.00 Ry     beta= 0.70
     Davidson diagonalization with overlap
     ethr =  3.23E-08,  avg # of iterations =  3.0

     total cpu time spent up to now is      404.5 secs

     total energy              =   -2524.30529753 Ry
     Harris-Foulkes estimate   =   -2524.30532922 Ry
     estimated scf accuracy    <       0.00005889 Ry

     total magnetization       =     0.00 Bohr mag/cell
     absolute magnetization    =     0.00 Bohr mag/cell

     iteration #  3     ecut=    42.00 Ry     beta= 0.70
     Davidson diagonalization with overlap
     ethr =  3.23E-08,  avg # of iterations =  2.0

     total cpu time spent up to now is      416.4 secs

     total energy              =   -2524.30530100 Ry
     Harris-Foulkes estimate   =   -2524.30530358 Ry
     estimated scf accuracy    <       0.00000828 Ry

     total magnetization       =     0.00 Bohr mag/cell
     absolute magnetization    =     0.00 Bohr mag/cell

     iteration #  4     ecut=    42.00 Ry     beta= 0.70
     Davidson diagonalization with overlap
     ethr =  7.39E-09,  avg # of iterations =  1.0

     total cpu time spent up to now is      427.1 secs

     total energy              =   -2524.30529977 Ry
     Harris-Foulkes estimate   =   -2524.30530134 Ry
     estimated scf accuracy    <       0.00000350 Ry

     total magnetization       =     0.00 Bohr mag/cell
     absolute magnetization    =     0.00 Bohr mag/cell

     iteration #  5     ecut=    42.00 Ry     beta= 0.70
     Davidson diagonalization with overlap
     ethr =  3.12E-09,  avg # of iterations =  2.0

     Magnetic moment per site:
     atom:    1    charge:   11.8970    magn:   -0.0000    constr:    0.0000
     atom:    2    charge:   11.8984    magn:   -0.0000    constr:    0.0000
     atom:    3    charge:   11.8970    magn:   -0.0000    constr:    0.0000
     atom:    4    charge:   11.8984    magn:   -0.0000    constr:    0.0000
     atom:    5    charge:   11.8970    magn:    0.0000    constr:    0.0000
     atom:    6    charge:   11.8984    magn:   -0.0000    constr:    0.0000
     atom:    7    charge:   11.8970    magn:   -0.0000    constr:    0.0000
     atom:    8    charge:   11.8984    magn:   -0.0000    constr:    0.0000

     total cpu time spent up to now is      437.5 secs

     End of self-consistent calculation

 ------ SPIN UP ------------


          k = 0.1250 0.1250 0.1250 (  5923 PWs)   bands (ev):

   -16.9991 -16.9991 -16.9991 -16.9927 -16.9927 -16.9927 -16.9707 -16.9707
   -16.9615 -16.9286 -16.9286 -16.9286 -16.9231 -16.9231 -16.8876 -16.8876
   -16.8876 -16.8542 -16.8542 -16.8542 -16.8166 -16.8166 -16.8166 -16.8137
   -16.8137 -16.8137 -16.7731 -16.7731 -16.7731 -16.7611 -16.7611 -16.7518
   -16.7310 -16.7310 -16.7044 -16.7044 -16.7044 -16.6987 -16.6987 -16.6986
    -4.4080  -1.6861  -1.6861  -1.6861  -0.0339  -0.0339  -0.0338   4.4411
     4.4411   4.4411   5.0579   5.0579   5.0579   5.3284   7.4647   7.4647
     8.5767   8.7294   8.7295   8.7295   9.7217   9.7218   9.7218  10.7229
    10.7229  11.1039  14.9715

          k = 0.1250 0.1250 0.3750 (  5947 PWs)   bands (ev):

   -17.0062 -17.0062 -16.9981 -16.9981 -16.9922 -16.9856 -16.9819 -16.9758
   -16.9608 -16.9521 -16.9132 -16.9100 -16.9100 -16.8954 -16.8886 -16.8629
   -16.8629 -16.8563 -16.8563 -16.8560 -16.8427 -16.8348 -16.8347 -16.8185
   -16.8184 -16.7976 -16.7902 -16.7902 -16.7834 -16.7621 -16.7488 -16.7452
   -16.7295 -16.7186 -16.7156 -16.7083 -16.6996 -16.6996 -16.6920 -16.6920
    -3.9341  -3.0084  -1.5846  -1.5845  -0.0971  -0.0970   1.7588   3.5851
     3.9030   3.9030   4.8918   4.8918   5.0986   5.5392   6.3383   6.4355
     9.0755   9.5925  10.0310  10.0310  10.2290  10.3839  11.8438  11.8438
    12.2116  12.5016  12.7655

          k = 0.1250 0.3750 0.3750 (  5948 PWs)   bands (ev):

   -17.0059 -16.9988 -16.9988 -16.9932 -16.9920 -16.9920 -16.9873 -16.9855
   -16.9454 -16.9300 -16.9300 -16.9197 -16.9059 -16.8909 -16.8888 -16.8888
   -16.8716 -16.8663 -16.8662 -16.8641 -16.8240 -16.8240 -16.8210 -16.8129
   -16.7922 -16.7875 -16.7875 -16.7836 -16.7784 -16.7760 -16.7760 -16.7610
   -16.7184 -16.7117 -16.7074 -16.7074 -16.7046 -16.7012 -16.7012 -16.6934
    -3.4936  -2.6601  -2.6601  -2.0840   0.3441   1.0773   1.0773   2.3433
     3.8804   4.4423   4.4423   5.3705   5.8131   5.8131   5.8235   6.9041
     9.2236   9.3564  10.0799  10.0799  11.1233  11.1234  11.4763  11.6513
    12.5955  12.5956  12.6034

          k = 0.3750 0.3750 0.3750 (  5926 PWs)   bands (ev):

   -16.9954 -16.9954 -16.9954 -16.9869 -16.9869 -16.9869 -16.9839 -16.9839
   -16.9504 -16.9370 -16.9370 -16.9370 -16.8991 -16.8991 -16.8899 -16.8899
   -16.8899 -16.8865 -16.8865 -16.8865 -16.7989 -16.7989 -16.7989 -16.7872
   -16.7872 -16.7872 -16.7804 -16.7804 -16.7726 -16.7726 -16.7726 -16.7644
   -16.7165 -16.7165 -16.7129 -16.7128 -16.7128 -16.7046 -16.7046 -16.7046
    -3.1278  -2.5365  -2.5365  -2.5364   0.5193   0.5194   0.5194   1.2820
     5.2469   5.2469   5.2470   6.1281   6.1282   6.1282   6.5824   6.5824
     7.9221   9.0270   9.0271   9.0271  11.2818  11.2819  11.2819  11.5062
    11.5062  12.1700  12.1700

 ------ SPIN DOWN ----------


          k = 0.1250 0.1250 0.1250 (  5923 PWs)   bands (ev):

   -16.9991 -16.9991 -16.9991 -16.9927 -16.9927 -16.9927 -16.9707 -16.9707
   -16.9615 -16.9286 -16.9286 -16.9286 -16.9231 -16.9231 -16.8876 -16.8876
   -16.8876 -16.8542 -16.8542 -16.8542 -16.8166 -16.8166 -16.8166 -16.8137
   -16.8137 -16.8137 -16.7731 -16.7731 -16.7731 -16.7611 -16.7611 -16.7518
   -16.7310 -16.7310 -16.7044 -16.7044 -16.7044 -16.6987 -16.6987 -16.6986
    -4.4080  -1.6861  -1.6861  -1.6861  -0.0339  -0.0339  -0.0338   4.4411
     4.4411   4.4411   5.0579   5.0579   5.0579   5.3284   7.4647   7.4647
     8.5767   8.7294   8.7295   8.7295   9.7217   9.7218   9.7218  10.7229
    10.7229  11.1039  14.9715

          k = 0.1250 0.1250 0.3750 (  5947 PWs)   bands (ev):

   -17.0062 -17.0062 -16.9981 -16.9981 -16.9922 -16.9856 -16.9819 -16.9758
   -16.9608 -16.9521 -16.9132 -16.9100 -16.9100 -16.8954 -16.8886 -16.8629
   -16.8629 -16.8563 -16.8563 -16.8560 -16.8427 -16.8348 -16.8347 -16.8185
   -16.8184 -16.7976 -16.7902 -16.7902 -16.7834 -16.7621 -16.7488 -16.7452
   -16.7295 -16.7186 -16.7156 -16.7083 -16.6996 -16.6996 -16.6920 -16.6920
    -3.9341  -3.0084  -1.5846  -1.5845  -0.0971  -0.0970   1.7588   3.5851
     3.9030   3.9030   4.8918   4.8918   5.0986   5.5392   6.3383   6.4355
     9.0755   9.5925  10.0310  10.0310  10.2290  10.3839  11.8438  11.8438
    12.2116  12.5016  12.7655

          k = 0.1250 0.3750 0.3750 (  5948 PWs)   bands (ev):

   -17.0059 -16.9988 -16.9988 -16.9932 -16.9920 -16.9920 -16.9873 -16.9855
   -16.9454 -16.9300 -16.9300 -16.9197 -16.9059 -16.8909 -16.8888 -16.8888
   -16.8716 -16.8663 -16.8662 -16.8641 -16.8240 -16.8240 -16.8210 -16.8129
   -16.7922 -16.7875 -16.7875 -16.7836 -16.7784 -16.7760 -16.7760 -16.7610
   -16.7184 -16.7117 -16.7074 -16.7074 -16.7046 -16.7012 -16.7012 -16.6934
    -3.4936  -2.6601  -2.6601  -2.0840   0.3441   1.0773   1.0773   2.3433
     3.8804   4.4423   4.4423   5.3705   5.8131   5.8131   5.8235   6.9041
     9.2236   9.3564  10.0799  10.0799  11.1233  11.1234  11.4763  11.6513
    12.5955  12.5956  12.6034

          k = 0.3750 0.3750 0.3750 (  5926 PWs)   bands (ev):

   -16.9954 -16.9954 -16.9954 -16.9869 -16.9869 -16.9869 -16.9839 -16.9839
   -16.9504 -16.9370 -16.9370 -16.9370 -16.8991 -16.8991 -16.8899 -16.8899
   -16.8899 -16.8865 -16.8865 -16.8865 -16.7989 -16.7989 -16.7989 -16.7872
   -16.7872 -16.7872 -16.7804 -16.7804 -16.7726 -16.7726 -16.7726 -16.7644
   -16.7165 -16.7165 -16.7129 -16.7128 -16.7128 -16.7046 -16.7046 -16.7046
    -3.1278  -2.5365  -2.5365  -2.5364   0.5193   0.5194   0.5194   1.2820
     5.2469   5.2469   5.2470   6.1281   6.1282   6.1282   6.5824   6.5824
     7.9221   9.0270   9.0271   9.0271  11.2818  11.2819  11.2819  11.5062
    11.5062  12.1700  12.1700

     the Fermi energy is     7.6934 ev

!    total energy              =   -2524.30529942 Ry
     Harris-Foulkes estimate   =   -2524.30530009 Ry
     estimated scf accuracy    <       0.00000072 Ry

     total all-electron energy =    -33583.958309 Ry

     The total energy is the sum of the following terms:

     one-electron contribution =   -1163.98057132 Ry
     hartree contribution      =     662.84909143 Ry
     xc contribution           =    -313.44794718 Ry
     ewald contribution        =    -775.57971935 Ry
     one-center paw contrib.   =    -934.14659109 Ry
     smearing contrib. (-TS)   =       0.00043810 Ry

     total magnetization       =     0.00 Bohr mag/cell
     absolute magnetization    =     0.00 Bohr mag/cell

     convergence has been achieved in   5 iterations

     Forces acting on atoms (cartesian axes, Ry/au):

     atom    1 type  1   force =     0.00000000    0.00000000    0.00000000
     atom    2 type  1   force =    -0.00001066   -0.00001066   -0.00001066
     atom    3 type  1   force =     0.00000000    0.00000000    0.00000000
     atom    4 type  1   force =    -0.00001066    0.00001066    0.00001066
     atom    5 type  1   force =     0.00000000    0.00000000    0.00000000
     atom    6 type  1   force =     0.00001066   -0.00001066    0.00001066
     atom    7 type  1   force =     0.00000000    0.00000000    0.00000000
     atom    8 type  1   force =     0.00001066    0.00001066   -0.00001066

     Total force =     0.000037     Total SCF correction =     0.000017
     SCF correction compared to forces is large: reduce conv_thr to get better values


     Computing stress (Cartesian axis) and pressure

          total   stress  (Ry/bohr**3)                   (kbar)     P=  -11.12
  -0.00007561   0.00000000   0.00000000        -11.12      0.00      0.00
   0.00000000  -0.00007561   0.00000000          0.00    -11.12      0.00
   0.00000000   0.00000000  -0.00007561          0.00      0.00    -11.12


     number of scf cycles    =   4
     number of bfgs steps    =   1

     enthalpy old            =   -2524.3053007943 Ry
     enthalpy new            =   -2524.3052994191 Ry

     CASE: enthalpy_new > enthalpy_old

     new trust radius        =       0.0000640570 bohr

     trust_radius < trust_radius_min

     resetting bfgs history

     new conv_thr            =       0.0000010000 Ry

     new unit-cell volume =   1293.03982 a.u.^3 (   191.60873 Ang^3 )
     density =      5.03547 g/cm^3

CELL_PARAMETERS (alat= 10.89022714)
   1.000384672   0.000000000   0.000000000
   0.000000000   1.000384672   0.000000000
   0.000000000   0.000000000   1.000384672

ATOMIC_POSITIONS (crystal)
Ge       0.500000000   0.000000000   0.500000000
Ge       0.250022101   0.250022101   0.250022101
Ge       0.500000000   0.500000000   0.000000000
Ge       0.250022101   0.749977899   0.749977899
Ge       0.000000000   0.000000000   0.000000000
Ge       0.749977899   0.250022101   0.749977899
Ge       0.000000000   0.500000000   0.500000000
Ge       0.749977899   0.749977899   0.250022101



     Writing output data file pw.save/
     NEW-OLD atomic charge density approx. for the potential

     Check: negative core charge=   -0.000002
     extrapolated charge  112.11881, renormalised to  112.00000

     total cpu time spent up to now is      463.4 secs

     Self-consistent Calculation

     iteration #  1     ecut=    42.00 Ry     beta= 0.70
     Davidson diagonalization with overlap
     ethr =  1.00E-06,  avg # of iterations =  3.0

     total cpu time spent up to now is      477.3 secs

     total energy              =   -2524.30426935 Ry
     Harris-Foulkes estimate   =   -2523.15163583 Ry
     estimated scf accuracy    <       0.00053328 Ry

     total magnetization       =     0.00 Bohr mag/cell
     absolute magnetization    =     0.00 Bohr mag/cell

     iteration #  2     ecut=    42.00 Ry     beta= 0.70
     Davidson diagonalization with overlap
     ethr =  4.76E-07,  avg # of iterations =  3.0

     total cpu time spent up to now is      492.4 secs

     total energy              =   -2524.30527770 Ry
     Harris-Foulkes estimate   =   -2524.30585270 Ry
     estimated scf accuracy    <       0.00113867 Ry

     total magnetization       =    -0.00 Bohr mag/cell
     absolute magnetization    =     0.00 Bohr mag/cell

     iteration #  3     ecut=    42.00 Ry     beta= 0.70
     Davidson diagonalization with overlap
     ethr =  4.76E-07,  avg # of iterations =  2.0

     total cpu time spent up to now is      504.3 secs

     total energy              =   -2524.30531313 Ry
     Harris-Foulkes estimate   =   -2524.30537767 Ry
     estimated scf accuracy    <       0.00020244 Ry

     total magnetization       =    -0.00 Bohr mag/cell
     absolute magnetization    =     0.00 Bohr mag/cell

     iteration #  4     ecut=    42.00 Ry     beta= 0.70
     Davidson diagonalization with overlap
     ethr =  1.81E-07,  avg # of iterations =  1.0

     total cpu time spent up to now is      514.1 secs

     total energy              =   -2524.30527766 Ry
     Harris-Foulkes estimate   =   -2524.30532059 Ry
     estimated scf accuracy    <       0.00008579 Ry

     total magnetization       =    -0.00 Bohr mag/cell
     absolute magnetization    =     0.00 Bohr mag/cell

     iteration #  5     ecut=    42.00 Ry     beta= 0.70
     Davidson diagonalization with overlap
     ethr =  7.66E-08,  avg # of iterations =  2.0

     total cpu time spent up to now is      525.0 secs

     total energy              =   -2524.30528546 Ry
     Harris-Foulkes estimate   =   -2524.30528696 Ry
     estimated scf accuracy    <       0.00001304 Ry

     total magnetization       =    -0.00 Bohr mag/cell
     absolute magnetization    =     0.00 Bohr mag/cell

     iteration #  6     ecut=    42.00 Ry     beta= 0.70
     Davidson diagonalization with overlap
     ethr =  1.16E-08,  avg # of iterations =  1.8

     total cpu time spent up to now is      535.2 secs

     total energy              =   -2524.30528448 Ry
     Harris-Foulkes estimate   =   -2524.30528595 Ry
     estimated scf accuracy    <       0.00000943 Ry

     total magnetization       =     0.00 Bohr mag/cell
     absolute magnetization    =     0.00 Bohr mag/cell

     iteration #  7     ecut=    42.00 Ry     beta= 0.70
     Davidson diagonalization with overlap
     ethr =  8.42E-09,  avg # of iterations =  1.0

     total cpu time spent up to now is      545.1 secs

     total energy              =   -2524.30528485 Ry
     Harris-Foulkes estimate   =   -2524.30528461 Ry
     estimated scf accuracy    <       0.00000627 Ry

     total magnetization       =     0.00 Bohr mag/cell
     absolute magnetization    =     0.00 Bohr mag/cell

     iteration #  8     ecut=    42.00 Ry     beta= 0.70
     Davidson diagonalization with overlap
     ethr =  5.59E-09,  avg # of iterations =  1.0

     total cpu time spent up to now is      555.1 secs

     total energy              =   -2524.30528110 Ry
     Harris-Foulkes estimate   =   -2524.30528487 Ry
     estimated scf accuracy    <       0.00000675 Ry

     total magnetization       =     0.00 Bohr mag/cell
     absolute magnetization    =     0.00 Bohr mag/cell

     iteration #  9     ecut=    42.00 Ry     beta= 0.70
     Davidson diagonalization with overlap
     ethr =  5.59E-09,  avg # of iterations =  2.0

     Magnetic moment per site:
     atom:    1    charge:   11.8985    magn:    0.0000    constr:    0.0000
     atom:    2    charge:   11.8999    magn:   -0.0000    constr:    0.0000
     atom:    3    charge:   11.8985    magn:    0.0000    constr:    0.0000
     atom:    4    charge:   11.8999    magn:   -0.0000    constr:    0.0000
     atom:    5    charge:   11.8983    magn:   -0.0000    constr:    0.0000
     atom:    6    charge:   11.8999    magn:   -0.0000    constr:    0.0000
     atom:    7    charge:   11.8985    magn:    0.0000    constr:    0.0000
     atom:    8    charge:   11.8999    magn:   -0.0000    constr:    0.0000

     total cpu time spent up to now is      567.2 secs

     End of self-consistent calculation

 ------ SPIN UP ------------


          k = 0.1250 0.1250 0.1250 (  5923 PWs)   bands (ev):

   -17.0175 -17.0175 -17.0173 -17.0112 -17.0110 -17.0110 -16.9891 -16.9891
   -16.9799 -16.9471 -16.9470 -16.9470 -16.9417 -16.9417 -16.9062 -16.9062
   -16.9062 -16.8730 -16.8729 -16.8729 -16.8356 -16.8355 -16.8355 -16.8327
   -16.8326 -16.8326 -16.7922 -16.7921 -16.7921 -16.7801 -16.7801 -16.7709
   -16.7501 -16.7501 -16.7237 -16.7236 -16.7236 -16.7179 -16.7179 -16.7179
    -4.4150  -1.6964  -1.6964  -1.6957  -0.0459  -0.0459  -0.0455   4.4312
     4.4312   4.4314   5.0468   5.0471   5.0471   5.3116   7.4507   7.4507
     8.5577   8.7159   8.7168   8.7168   9.7070   9.7079   9.7079  10.7076
    10.7076  11.0866  14.9544

          k = 0.1250 0.1250 0.3749 (  5947 PWs)   bands (ev):

   -17.0246 -17.0245 -17.0165 -17.0164 -17.0105 -17.0039 -17.0003 -16.9942
   -16.9793 -16.9706 -16.9318 -16.9286 -16.9285 -16.9140 -16.9073 -16.8816
   -16.8816 -16.8751 -16.8750 -16.8747 -16.8615 -16.8536 -16.8535 -16.8373
   -16.8373 -16.8165 -16.8092 -16.8091 -16.8024 -16.7812 -16.7679 -16.7643
   -16.7486 -16.7378 -16.7348 -16.7275 -16.7189 -16.7189 -16.7114 -16.7113
    -3.9416  -3.0170  -1.5953  -1.5947  -0.1089  -0.1087   1.7450   3.5700
     3.8938   3.8940   4.8813   4.8814   5.0877   5.5277   6.3254   6.4229
     9.0619   9.5758  10.0157  10.0162  10.2118  10.3677  11.8261  11.8266
    12.1946  12.4845  12.7491

          k = 0.1250 0.3749 0.3749 (  5948 PWs)   bands (ev):

   -17.0242 -17.0172 -17.0171 -17.0115 -17.0104 -17.0103 -17.0056 -17.0039
   -16.9639 -16.9485 -16.9485 -16.9382 -16.9245 -16.9096 -16.9076 -16.9074
   -16.8903 -16.8850 -16.8849 -16.8828 -16.8428 -16.8428 -16.8399 -16.8318
   -16.8111 -16.8066 -16.8064 -16.8026 -16.7974 -16.7951 -16.7950 -16.7801
   -16.7376 -16.7309 -16.7267 -16.7266 -16.7238 -16.7205 -16.7204 -16.7126
    -3.5017  -2.6695  -2.6689  -2.0939   0.3325   1.0648   1.0650   2.3300
     3.8710   4.4319   4.4322   5.3590   5.8009   5.8017   5.8116   6.8906
     9.2055   9.3413  10.0624  10.0625  11.1076  11.1079  11.4607  11.6353
    12.5795  12.5799  12.5851

          k = 0.3749 0.3749 0.3749 (  5926 PWs)   bands (ev):

   -17.0138 -17.0138 -17.0136 -17.0054 -17.0052 -17.0052 -17.0023 -17.0023
   -16.9688 -16.9555 -16.9555 -16.9555 -16.9178 -16.9178 -16.9087 -16.9085
   -16.9085 -16.9052 -16.9051 -16.9051 -16.8179 -16.8179 -16.8179 -16.8063
   -16.8061 -16.8061 -16.7994 -16.7994 -16.7917 -16.7916 -16.7916 -16.7835
   -16.7357 -16.7357 -16.7321 -16.7320 -16.7320 -16.7239 -16.7239 -16.7238
    -3.1363  -2.5462  -2.5462  -2.5452   0.5084   0.5089   0.5089   1.2707
     5.2347   5.2347   5.2354   6.1156   6.1159   6.1159   6.5694   6.5694
     7.9046   9.0096   9.0099   9.0099  11.2669  11.2671  11.2671  11.4911
    11.4911  12.1542  12.1545

 ------ SPIN DOWN ----------


          k = 0.1250 0.1250 0.1250 (  5923 PWs)   bands (ev):

   -17.0175 -17.0175 -17.0173 -17.0112 -17.0110 -17.0110 -16.9891 -16.9891
   -16.9799 -16.9471 -16.9470 -16.9470 -16.9417 -16.9417 -16.9062 -16.9062
   -16.9062 -16.8730 -16.8729 -16.8729 -16.8356 -16.8355 -16.8355 -16.8327
   -16.8326 -16.8326 -16.7922 -16.7921 -16.7921 -16.7801 -16.7801 -16.7709
   -16.7501 -16.7501 -16.7237 -16.7236 -16.7236 -16.7179 -16.7179 -16.7179
    -4.4150  -1.6964  -1.6964  -1.6957  -0.0459  -0.0459  -0.0455   4.4312
     4.4312   4.4314   5.0468   5.0471   5.0471   5.3116   7.4507   7.4507
     8.5577   8.7159   8.7168   8.7168   9.7070   9.7079   9.7079  10.7076
    10.7076  11.0866  14.9544

          k = 0.1250 0.1250 0.3749 (  5947 PWs)   bands (ev):

   -17.0246 -17.0245 -17.0165 -17.0164 -17.0105 -17.0039 -17.0003 -16.9942
   -16.9793 -16.9706 -16.9318 -16.9286 -16.9285 -16.9140 -16.9073 -16.8816
   -16.8816 -16.8751 -16.8750 -16.8747 -16.8615 -16.8536 -16.8535 -16.8373
   -16.8373 -16.8165 -16.8092 -16.8091 -16.8024 -16.7812 -16.7679 -16.7643
   -16.7486 -16.7378 -16.7348 -16.7275 -16.7189 -16.7189 -16.7114 -16.7113
    -3.9416  -3.0170  -1.5953  -1.5947  -0.1089  -0.1087   1.7450   3.5700
     3.8938   3.8940   4.8813   4.8814   5.0877   5.5277   6.3254   6.4229
     9.0619   9.5758  10.0157  10.0162  10.2118  10.3677  11.8261  11.8266
    12.1946  12.4845  12.7495

          k = 0.1250 0.3749 0.3749 (  5948 PWs)   bands (ev):

   -17.0242 -17.0172 -17.0171 -17.0115 -17.0104 -17.0103 -17.0056 -17.0039
   -16.9639 -16.9485 -16.9485 -16.9382 -16.9245 -16.9096 -16.9076 -16.9074
   -16.8903 -16.8850 -16.8849 -16.8828 -16.8428 -16.8428 -16.8399 -16.8318
   -16.8112 -16.8066 -16.8064 -16.8026 -16.7974 -16.7951 -16.7950 -16.7801
   -16.7376 -16.7309 -16.7267 -16.7266 -16.7238 -16.7205 -16.7204 -16.7126
    -3.5017  -2.6695  -2.6689  -2.0939   0.3325   1.0648   1.0650   2.3300
     3.8710   4.4319   4.4322   5.3590   5.8009   5.8017   5.8116   6.8906
     9.2055   9.3413  10.0624  10.0625  11.1076  11.1079  11.4607  11.6353
    12.5795  12.5799  12.5851

          k = 0.3749 0.3749 0.3749 (  5926 PWs)   bands (ev):

   -17.0138 -17.0138 -17.0136 -17.0054 -17.0052 -17.0052 -17.0023 -17.0023
   -16.9688 -16.9555 -16.9555 -16.9555 -16.9178 -16.9178 -16.9087 -16.9085
   -16.9085 -16.9052 -16.9051 -16.9051 -16.8179 -16.8179 -16.8179 -16.8063
   -16.8061 -16.8061 -16.7994 -16.7994 -16.7917 -16.7916 -16.7916 -16.7835
   -16.7357 -16.7357 -16.7321 -16.7320 -16.7320 -16.7239 -16.7239 -16.7238
    -3.1363  -2.5462  -2.5462  -2.5452   0.5084   0.5089   0.5089   1.2707
     5.2347   5.2347   5.2354   6.1156   6.1159   6.1159   6.5694   6.5694
     7.9046   9.0096   9.0099   9.0099  11.2669  11.2671  11.2671  11.4911
    11.4911  12.1544  12.1545

     the Fermi energy is     7.6781 ev

!    total energy              =   -2524.30528164 Ry
     Harris-Foulkes estimate   =   -2524.30528212 Ry
     estimated scf accuracy    <       0.00000057 Ry

     total all-electron energy =    -33583.958291 Ry

     The total energy is the sum of the following terms:

     one-electron contribution =   -1164.47180812 Ry
     hartree contribution      =     663.06559054 Ry
     xc contribution           =    -313.44942060 Ry
     ewald contribution        =    -775.30535262 Ry
     one-center paw contrib.   =    -934.14471365 Ry
     smearing contrib. (-TS)   =       0.00042282 Ry

     total magnetization       =    -0.00 Bohr mag/cell
     absolute magnetization    =     0.00 Bohr mag/cell

     convergence has been achieved in   9 iterations

     Forces acting on atoms (cartesian axes, Ry/au):

     atom    1 type  1   force =     0.00000000    0.00000000    0.00000000
     atom    2 type  1   force =    -0.00007824   -0.00007824   -0.00007824
     atom    3 type  1   force =     0.00000000    0.00000000    0.00000000
     atom    4 type  1   force =    -0.00007824    0.00007824    0.00007824
     atom    5 type  1   force =     0.00000000    0.00000000    0.00000000
     atom    6 type  1   force =     0.00007824   -0.00007824    0.00007824
     atom    7 type  1   force =     0.00000000    0.00000000    0.00000000
     atom    8 type  1   force =     0.00007824    0.00007824   -0.00007824

     Total force =     0.000271     Total SCF correction =     0.000077
     SCF correction compared to forces is large: reduce conv_thr to get better values


     Computing stress (Cartesian axis) and pressure

          total   stress  (Ry/bohr**3)                   (kbar)     P=    5.88
   0.00003994   0.00000000   0.00000000          5.88      0.00      0.00
   0.00000000   0.00003994   0.00000000          0.00      5.88      0.00
   0.00000000   0.00000000   0.00003994          0.00      0.00      5.88


     number of scf cycles    =   5
     number of bfgs steps    =   1

     enthalpy old            =   -2524.3053007943 Ry
     enthalpy new            =   -2524.3052816355 Ry

     CASE: enthalpy_new > enthalpy_old

     new trust radius        =       0.0007635880 bohr
     new conv_thr            =       0.0000010000 Ry

     new unit-cell volume =   1291.96038 a.u.^3 (   191.44877 Ang^3 )
     density =      5.03967 g/cm^3

CELL_PARAMETERS (alat= 10.89022714)
   1.000106216   0.000000000   0.000000000
   0.000000000   1.000106216   0.000000000
   0.000000000   0.000000000   1.000106216

ATOMIC_POSITIONS (crystal)
Ge       0.500000000   0.000000000   0.500000000
Ge       0.250006103   0.250006103   0.250006103
Ge       0.500000000   0.500000000   0.000000000
Ge       0.250006103   0.749993897   0.749993897
Ge       0.000000000   0.000000000   0.000000000
Ge       0.749993897   0.250006103   0.749993897
Ge       0.000000000   0.500000000   0.500000000
Ge       0.749993897   0.749993897   0.250006103



     Writing output data file pw.save/
     NEW-OLD atomic charge density approx. for the potential

     Check: negative core charge=   -0.000002
     extrapolated charge  111.90643, renormalised to  112.00000

     total cpu time spent up to now is      593.4 secs

     Self-consistent Calculation

     iteration #  1     ecut=    42.00 Ry     beta= 0.70
     Davidson diagonalization with overlap
     ethr =  1.00E-06,  avg # of iterations =  2.0

     total cpu time spent up to now is      606.2 secs

     total energy              =   -2524.30467423 Ry
     Harris-Foulkes estimate   =   -2525.21390385 Ry
     estimated scf accuracy    <       0.00032666 Ry

     total magnetization       =    -0.00 Bohr mag/cell
     absolute magnetization    =     0.00 Bohr mag/cell

     iteration #  2     ecut=    42.00 Ry     beta= 0.70
     Davidson diagonalization with overlap
     ethr =  2.92E-07,  avg # of iterations =  3.0

     total cpu time spent up to now is      620.8 secs

     total energy              =   -2524.30529311 Ry
     Harris-Foulkes estimate   =   -2524.30564641 Ry
     estimated scf accuracy    <       0.00070082 Ry

     total magnetization       =     0.00 Bohr mag/cell
     absolute magnetization    =     0.00 Bohr mag/cell

     iteration #  3     ecut=    42.00 Ry     beta= 0.70
     Davidson diagonalization with overlap
     ethr =  2.92E-07,  avg # of iterations =  2.0

     total cpu time spent up to now is      632.7 secs

     total energy              =   -2524.30531703 Ry
     Harris-Foulkes estimate   =   -2524.30535477 Ry
     estimated scf accuracy    <       0.00012433 Ry

     total magnetization       =     0.00 Bohr mag/cell
     absolute magnetization    =     0.00 Bohr mag/cell

     iteration #  4     ecut=    42.00 Ry     beta= 0.70
     Davidson diagonalization with overlap
     ethr =  1.11E-07,  avg # of iterations =  1.0

     total cpu time spent up to now is      642.5 secs

     total energy              =   -2524.30528986 Ry
     Harris-Foulkes estimate   =   -2524.30532130 Ry
     estimated scf accuracy    <       0.00005557 Ry

     total magnetization       =     0.00 Bohr mag/cell
     absolute magnetization    =     0.00 Bohr mag/cell

     iteration #  5     ecut=    42.00 Ry     beta= 0.70
     Davidson diagonalization with overlap
     ethr =  4.96E-08,  avg # of iterations =  2.0

     total cpu time spent up to now is      654.6 secs

     total energy              =   -2524.30529861 Ry
     Harris-Foulkes estimate   =   -2524.30529817 Ry
     estimated scf accuracy    <       0.00000435 Ry

     total magnetization       =    -0.00 Bohr mag/cell
     absolute magnetization    =     0.00 Bohr mag/cell

     iteration #  6     ecut=    42.00 Ry     beta= 0.70
     Davidson diagonalization with overlap
     ethr =  3.88E-09,  avg # of iterations =  1.5

     total cpu time spent up to now is      664.9 secs

     total energy              =   -2524.30529824 Ry
     Harris-Foulkes estimate   =   -2524.30529864 Ry
     estimated scf accuracy    <       0.00000519 Ry

     total magnetization       =    -0.00 Bohr mag/cell
     absolute magnetization    =     0.00 Bohr mag/cell

     iteration #  7     ecut=    42.00 Ry     beta= 0.70
     Davidson diagonalization with overlap
     ethr =  3.88E-09,  avg # of iterations =  1.0

     total cpu time spent up to now is      674.7 secs

     total energy              =   -2524.30529544 Ry
     Harris-Foulkes estimate   =   -2524.30529825 Ry
     estimated scf accuracy    <       0.00000444 Ry

     total magnetization       =    -0.00 Bohr mag/cell
     absolute magnetization    =     0.00 Bohr mag/cell

     iteration #  8     ecut=    42.00 Ry     beta= 0.70
     Davidson diagonalization with overlap
     ethr =  3.88E-09,  avg # of iterations =  2.0

     Magnetic moment per site:
     atom:    1    charge:   11.8973    magn:   -0.0000    constr:    0.0000
     atom:    2    charge:   11.8988    magn:   -0.0000    constr:    0.0000
     atom:    3    charge:   11.8973    magn:   -0.0000    constr:    0.0000
     atom:    4    charge:   11.8988    magn:   -0.0000    constr:    0.0000
     atom:    5    charge:   11.8973    magn:   -0.0000    constr:    0.0000
     atom:    6    charge:   11.8988    magn:   -0.0000    constr:    0.0000
     atom:    7    charge:   11.8973    magn:   -0.0000    constr:    0.0000
     atom:    8    charge:   11.8988    magn:   -0.0000    constr:    0.0000

     total cpu time spent up to now is      686.6 secs

     End of self-consistent calculation

 ------ SPIN UP ------------


          k = 0.1250 0.1250 0.1250 (  5923 PWs)   bands (ev):

   -17.0042 -17.0042 -17.0041 -16.9978 -16.9978 -16.9978 -16.9757 -16.9757
   -16.9666 -16.9337 -16.9337 -16.9337 -16.9282 -16.9282 -16.8927 -16.8927
   -16.8927 -16.8594 -16.8594 -16.8594 -16.8219 -16.8218 -16.8218 -16.8190
   -16.8189 -16.8189 -16.7783 -16.7783 -16.7783 -16.7663 -16.7663 -16.7571
   -16.7362 -16.7362 -16.7097 -16.7097 -16.7097 -16.7040 -16.7040 -16.7039
    -4.4093  -1.6882  -1.6882  -1.6880  -0.0363  -0.0363  -0.0362   4.4391
     4.4391   4.4391   5.0556   5.0557   5.0557   5.3249   7.4618   7.4618
     8.5727   8.7265   8.7268   8.7268   9.7185   9.7188   9.7188  10.7197
    10.7197  11.1003  14.9677

          k = 0.1250 0.1250 0.3750 (  5947 PWs)   bands (ev):

   -17.0113 -17.0113 -17.0032 -17.0032 -16.9973 -16.9906 -16.9870 -16.9809
   -16.9659 -16.9572 -16.9183 -16.9151 -16.9151 -16.9005 -16.8938 -16.8680
   -16.8680 -16.8615 -16.8615 -16.8612 -16.8479 -16.8399 -16.8399 -16.8237
   -16.8237 -16.8028 -16.7954 -16.7954 -16.7886 -16.7674 -16.7541 -16.7504
   -16.7348 -16.7239 -16.7209 -16.7136 -16.7049 -16.7049 -16.6974 -16.6973
    -3.9356  -3.0101  -1.5867  -1.5866  -0.0994  -0.0994   1.7560   3.5820
     3.9011   3.9011   4.8896   4.8897   5.0963   5.5369   6.3357   6.4329
     9.0726   9.5890  10.0277  10.0278  10.2254  10.3804  11.8400  11.8402
    12.2080  12.4979  12.7620

          k = 0.1250 0.3750 0.3750 (  5948 PWs)   bands (ev):

   -17.0110 -17.0039 -17.0039 -16.9982 -16.9971 -16.9970 -16.9924 -16.9906
   -16.9505 -16.9351 -16.9351 -16.9248 -16.9111 -16.8961 -16.8940 -16.8940
   -16.8767 -16.8714 -16.8714 -16.8692 -16.8292 -16.8292 -16.8262 -16.8181
   -16.7974 -16.7927 -16.7927 -16.7889 -16.7836 -16.7813 -16.7812 -16.7663
   -16.7237 -16.7170 -16.7127 -16.7127 -16.7099 -16.7065 -16.7065 -16.6987
    -3.4952  -2.6620  -2.6618  -2.0860   0.3417   1.0748   1.0748   2.3406
     3.8785   4.4401   4.4402   5.3682   5.8106   5.8108   5.8211   6.9013
     9.2198   9.3532  10.0762  10.0763  11.1200  11.1200  11.4730  11.6478
    12.5921  12.5922  12.5995

          k = 0.3750 0.3750 0.3750 (  5926 PWs)   bands (ev):

   -17.0005 -17.0005 -17.0004 -16.9920 -16.9920 -16.9920 -16.9890 -16.9890
   -16.9555 -16.9421 -16.9421 -16.9421 -16.9043 -16.9043 -16.8951 -16.8951
   -16.8951 -16.8917 -16.8917 -16.8917 -16.8041 -16.8041 -16.8041 -16.7924
   -16.7924 -16.7924 -16.7856 -16.7856 -16.7778 -16.7778 -16.7778 -16.7697
   -16.7218 -16.7218 -16.7181 -16.7181 -16.7181 -16.7099 -16.7099 -16.7099
    -3.1295  -2.5384  -2.5384  -2.5382   0.5171   0.5173   0.5173   1.2797
     5.2444   5.2444   5.2445   6.1256   6.1256   6.1256   6.5797   6.5797
     7.9184   9.0234   9.0235   9.0235  11.2786  11.2787  11.2787  11.5030
    11.5030  12.1666  12.1667

 ------ SPIN DOWN ----------


          k = 0.1250 0.1250 0.1250 (  5923 PWs)   bands (ev):

   -17.0042 -17.0042 -17.0041 -16.9978 -16.9978 -16.9978 -16.9758 -16.9758
   -16.9666 -16.9337 -16.9337 -16.9337 -16.9283 -16.9283 -16.8927 -16.8927
   -16.8927 -16.8594 -16.8594 -16.8594 -16.8219 -16.8218 -16.8218 -16.8190
   -16.8189 -16.8189 -16.7783 -16.7783 -16.7783 -16.7663 -16.7663 -16.7571
   -16.7362 -16.7362 -16.7097 -16.7097 -16.7097 -16.7040 -16.7040 -16.7039
    -4.4093  -1.6882  -1.6882  -1.6880  -0.0363  -0.0363  -0.0362   4.4391
     4.4391   4.4391   5.0556   5.0557   5.0557   5.3249   7.4618   7.4618
     8.5727   8.7265   8.7268   8.7268   9.7186   9.7188   9.7188  10.7197
    10.7197  11.1003  14.9677

          k = 0.1250 0.1250 0.3750 (  5947 PWs)   bands (ev):

   -17.0113 -17.0113 -17.0032 -17.0032 -16.9973 -16.9906 -16.9870 -16.9809
   -16.9659 -16.9572 -16.9183 -16.9151 -16.9151 -16.9005 -16.8938 -16.8680
   -16.8680 -16.8615 -16.8615 -16.8612 -16.8479 -16.8399 -16.8399 -16.8237
   -16.8237 -16.8028 -16.7954 -16.7954 -16.7886 -16.7674 -16.7541 -16.7504
[...]
     hartree contribution      =     662.84967898 Ry
     xc contribution           =    -313.44796897 Ry
     ewald contribution        =    -775.57883604 Ry
     one-center paw contrib.   =    -934.14658092 Ry
     smearing contrib. (-TS)   =       0.00043806 Ry

     total magnetization       =    -0.00 Bohr mag/cell
     absolute magnetization    =     0.00 Bohr mag/cell

     convergence has been achieved in   5 iterations

     Forces acting on atoms (cartesian axes, Ry/au):

     atom    1 type  1   force =     0.00000000    0.00000000    0.00000000
     atom    2 type  1   force =    -0.00001190   -0.00001190   -0.00001190
     atom    3 type  1   force =     0.00000000    0.00000000    0.00000000
     atom    4 type  1   force =    -0.00001190    0.00001190    0.00001190
     atom    5 type  1   force =     0.00000000    0.00000000    0.00000000
     atom    6 type  1   force =     0.00001190   -0.00001190    0.00001190
     atom    7 type  1   force =     0.00000000    0.00000000    0.00000000
     atom    8 type  1   force =     0.00001190    0.00001190   -0.00001190

     Total force =     0.000041     Total SCF correction =     0.000023
     SCF correction compared to forces is large: reduce conv_thr to get better values


     Computing stress (Cartesian axis) and pressure

          total   stress  (Ry/bohr**3)                   (kbar)     P=  -11.02
  -0.00007493   0.00000000   0.00000000        -11.02      0.00      0.00
   0.00000000  -0.00007493   0.00000000          0.00    -11.02      0.00
   0.00000000   0.00000000  -0.00007493          0.00      0.00    -11.02


     number of scf cycles    =  49
     number of bfgs steps    =   1

     enthalpy old            =   -2524.3053007943 Ry
     enthalpy new            =   -2524.3052993722 Ry

     CASE: enthalpy_new > enthalpy_old

     new trust radius        =       0.0000665044 bohr

     trust_radius < trust_radius_min

     resetting bfgs history

     new conv_thr            =       0.0000010000 Ry

     new unit-cell volume =   1293.03982 a.u.^3 (   191.60873 Ang^3 )
     density =      5.03547 g/cm^3

CELL_PARAMETERS (alat= 10.89022714)
   1.000384671   0.000000000   0.000000000
   0.000000000   1.000384671   0.000000000
   0.000000000   0.000000000   1.000384671

ATOMIC_POSITIONS (crystal)
Ge       0.500000000   0.000000000   0.500000000
Ge       0.250022101   0.250022101   0.250022101
Ge       0.500000000   0.500000000   0.000000000
Ge       0.250022101   0.749977899   0.749977899
Ge       0.000000000   0.000000000   0.000000000
Ge       0.749977899   0.250022101   0.749977899
Ge       0.000000000   0.500000000   0.500000000
Ge       0.749977899   0.749977899   0.250022101



     Writing output data file pw.save/
     NEW-OLD atomic charge density approx. for the potential

     Check: negative core charge=   -0.000002
     extrapolated charge  112.11843, renormalised to  112.00000

     total cpu time spent up to now is     5734.5 secs

     Self-consistent Calculation

     iteration #  1     ecut=    42.00 Ry     beta= 0.70
     Davidson diagonalization with overlap
     ethr =  1.00E-06,  avg # of iterations =  3.0

     total cpu time spent up to now is     5748.3 secs

     total energy              =   -2524.30427569 Ry
     Harris-Foulkes estimate   =   -2523.15534824 Ry
     estimated scf accuracy    <       0.00052996 Ry

     total magnetization       =    -0.00 Bohr mag/cell
     absolute magnetization    =     0.00 Bohr mag/cell

     iteration #  2     ecut=    42.00 Ry     beta= 0.70
     Davidson diagonalization with overlap
     ethr =  4.73E-07,  avg # of iterations =  3.0

     total cpu time spent up to now is     5764.1 secs

     total energy              =   -2524.30527771 Ry
     Harris-Foulkes estimate   =   -2524.30584912 Ry
     estimated scf accuracy    <       0.00113152 Ry

     total magnetization       =    -0.00 Bohr mag/cell
     absolute magnetization    =     0.00 Bohr mag/cell

     iteration #  3     ecut=    42.00 Ry     beta= 0.70
     Davidson diagonalization with overlap
     ethr =  4.73E-07,  avg # of iterations =  2.0

     total cpu time spent up to now is     5776.1 secs

     total energy              =   -2524.30531324 Ry
     Harris-Foulkes estimate   =   -2524.30537706 Ry
     estimated scf accuracy    <       0.00020116 Ry

     total magnetization       =    -0.00 Bohr mag/cell
     absolute magnetization    =     0.00 Bohr mag/cell

     iteration #  4     ecut=    42.00 Ry     beta= 0.70
     Davidson diagonalization with overlap
     ethr =  1.80E-07,  avg # of iterations =  1.0

     total cpu time spent up to now is     5786.0 secs

     total energy              =   -2524.30527765 Ry
     Harris-Foulkes estimate   =   -2524.30532058 Ry
     estimated scf accuracy    <       0.00008573 Ry

     total magnetization       =    -0.00 Bohr mag/cell
     absolute magnetization    =     0.00 Bohr mag/cell

     iteration #  5     ecut=    42.00 Ry     beta= 0.70
     Davidson diagonalization with overlap
     ethr =  7.65E-08,  avg # of iterations =  2.0

     total cpu time spent up to now is     5796.9 secs

     total energy              =   -2524.30528540 Ry
     Harris-Foulkes estimate   =   -2524.30528695 Ry
     estimated scf accuracy    <       0.00001301 Ry

     total magnetization       =    -0.00 Bohr mag/cell
     absolute magnetization    =     0.00 Bohr mag/cell

     iteration #  6     ecut=    42.00 Ry     beta= 0.70
     Davidson diagonalization with overlap
     ethr =  1.16E-08,  avg # of iterations =  1.8

     total cpu time spent up to now is     5807.1 secs

     total energy              =   -2524.30528448 Ry
     Harris-Foulkes estimate   =   -2524.30528589 Ry
     estimated scf accuracy    <       0.00000929 Ry

     total magnetization       =     0.00 Bohr mag/cell
     absolute magnetization    =     0.00 Bohr mag/cell

     iteration #  7     ecut=    42.00 Ry     beta= 0.70
     Davidson diagonalization with overlap
     ethr =  8.29E-09,  avg # of iterations =  1.0

     total cpu time spent up to now is     5817.2 secs

     total energy              =   -2524.30528483 Ry
     Harris-Foulkes estimate   =   -2524.30528459 Ry
     estimated scf accuracy    <       0.00000624 Ry

     total magnetization       =     0.00 Bohr mag/cell
     absolute magnetization    =     0.00 Bohr mag/cell

     iteration #  8     ecut=    42.00 Ry     beta= 0.70
     Davidson diagonalization with overlap
     ethr =  5.57E-09,  avg # of iterations =  1.0

     total cpu time spent up to now is     5827.2 secs

     total energy              =   -2524.30528113 Ry
     Harris-Foulkes estimate   =   -2524.30528485 Ry
     estimated scf accuracy    <       0.00000671 Ry

     total magnetization       =     0.00 Bohr mag/cell
     absolute magnetization    =     0.00 Bohr mag/cell

     iteration #  9     ecut=    42.00 Ry     beta= 0.70
     Davidson diagonalization with overlap
     ethr =  5.57E-09,  avg # of iterations =  2.0

     Magnetic moment per site:
     atom:    1    charge:   11.8985    magn:    0.0000    constr:    0.0000
     atom:    2    charge:   11.8999    magn:   -0.0000    constr:    0.0000
     atom:    3    charge:   11.8985    magn:    0.0000    constr:    0.0000
     atom:    4    charge:   11.8999    magn:   -0.0000    constr:    0.0000
     atom:    5    charge:   11.8983    magn:   -0.0000    constr:    0.0000
     atom:    6    charge:   11.8999    magn:   -0.0000    constr:    0.0000
     atom:    7    charge:   11.8985    magn:    0.0000    constr:    0.0000
     atom:    8    charge:   11.8999    magn:   -0.0000    constr:    0.0000

     total cpu time spent up to now is     5839.4 secs

     End of self-consistent calculation

 ------ SPIN UP ------------


          k = 0.1250 0.1250 0.1250 (  5923 PWs)   bands (ev):

   -17.0175 -17.0175 -17.0173 -17.0112 -17.0110 -17.0110 -16.9891 -16.9891
   -16.9799 -16.9472 -16.9471 -16.9471 -16.9417 -16.9417 -16.9062 -16.9062
   -16.9062 -16.8731 -16.8729 -16.8729 -16.8356 -16.8355 -16.8355 -16.8327
   -16.8326 -16.8326 -16.7922 -16.7921 -16.7921 -16.7802 -16.7802 -16.7709
   -16.7502 -16.7502 -16.7237 -16.7237 -16.7237 -16.7180 -16.7180 -16.7179
    -4.4149  -1.6964  -1.6964  -1.6956  -0.0459  -0.0459  -0.0455   4.4312
     4.4312   4.4314   5.0468   5.0471   5.0471   5.3116   7.4507   7.4507
     8.5577   8.7159   8.7168   8.7168   9.7070   9.7079   9.7079  10.7076
    10.7076  11.0866  14.9544

          k = 0.1250 0.1250 0.3749 (  5947 PWs)   bands (ev):

   -17.0246 -17.0245 -17.0165 -17.0164 -17.0106 -17.0040 -17.0003 -16.9942
   -16.9793 -16.9706 -16.9318 -16.9286 -16.9286 -16.9140 -16.9073 -16.8816
   -16.8816 -16.8751 -16.8751 -16.8748 -16.8615 -16.8536 -16.8536 -16.8374
   -16.8373 -16.8166 -16.8092 -16.8092 -16.8024 -16.7812 -16.7680 -16.7643
   -16.7487 -16.7378 -16.7349 -16.7276 -16.7189 -16.7189 -16.7114 -16.7113
    -3.9416  -3.0169  -1.5952  -1.5947  -0.1089  -0.1087   1.7450   3.5700
     3.8938   3.8940   4.8813   4.8814   5.0877   5.5278   6.3254   6.4229
     9.0619   9.5759  10.0157  10.0162  10.2118  10.3677  11.8261  11.8266
    12.1946  12.4845  12.7492

          k = 0.1250 0.3749 0.3749 (  5948 PWs)   bands (ev):

   -17.0243 -17.0172 -17.0171 -17.0115 -17.0104 -17.0103 -17.0057 -17.0039
   -16.9639 -16.9486 -16.9485 -16.9382 -16.9245 -16.9096 -16.9076 -16.9074
   -16.8903 -16.8851 -16.8849 -16.8828 -16.8429 -16.8428 -16.8399 -16.8318
   -16.8112 -16.8066 -16.8064 -16.8026 -16.7974 -16.7951 -16.7950 -16.7801
   -16.7376 -16.7309 -16.7267 -16.7266 -16.7238 -16.7205 -16.7204 -16.7127
    -3.5017  -2.6695  -2.6689  -2.0939   0.3325   1.0648   1.0650   2.3300
     3.8711   4.4319   4.4322   5.3591   5.8009   5.8017   5.8116   6.8906
     9.2056   9.3413  10.0625  10.0625  11.1076  11.1079  11.4607  11.6353
    12.5795  12.5799  12.5851

          k = 0.3749 0.3749 0.3749 (  5926 PWs)   bands (ev):

   -17.0138 -17.0138 -17.0136 -17.0054 -17.0053 -17.0053 -17.0023 -17.0023
   -16.9689 -16.9556 -16.9555 -16.9555 -16.9178 -16.9178 -16.9087 -16.9086
   -16.9086 -16.9052 -16.9051 -16.9051 -16.8179 -16.8179 -16.8179 -16.8063
   -16.8062 -16.8062 -16.7994 -16.7994 -16.7917 -16.7916 -16.7916 -16.7835
   -16.7358 -16.7358 -16.7321 -16.7320 -16.7320 -16.7239 -16.7239 -16.7238
    -3.1363  -2.5462  -2.5462  -2.5452   0.5084   0.5089   0.5089   1.2707
     5.2347   5.2347   5.2354   6.1156   6.1159   6.1159   6.5694   6.5694
     7.9046   9.0096   9.0099   9.0099  11.2669  11.2671  11.2671  11.4911
    11.4911  12.1542  12.1545

 ------ SPIN DOWN ----------


          k = 0.1250 0.1250 0.1250 (  5923 PWs)   bands (ev):

   -17.0175 -17.0175 -17.0173 -17.0112 -17.0110 -17.0110 -16.9891 -16.9891
   -16.9799 -16.9472 -16.9471 -16.9471 -16.9417 -16.9417 -16.9062 -16.9062
   -16.9062 -16.8731 -16.8729 -16.8729 -16.8356 -16.8355 -16.8355 -16.8327
   -16.8326 -16.8326 -16.7922 -16.7921 -16.7921 -16.7802 -16.7802 -16.7709
   -16.7502 -16.7502 -16.7237 -16.7237 -16.7237 -16.7180 -16.7180 -16.7179
    -4.4149  -1.6964  -1.6964  -1.6956  -0.0459  -0.0459  -0.0455   4.4312
     4.4312   4.4314   5.0468   5.0471   5.0471   5.3116   7.4507   7.4507
     8.5577   8.7159   8.7168   8.7168   9.7070   9.7079   9.7079  10.7076
    10.7076  11.0866  14.9544

          k = 0.1250 0.1250 0.3749 (  5947 PWs)   bands (ev):

   -17.0246 -17.0245 -17.0165 -17.0164 -17.0106 -17.0040 -17.0003 -16.9942
   -16.9793 -16.9706 -16.9318 -16.9286 -16.9286 -16.9140 -16.9073 -16.8816
   -16.8816 -16.8751 -16.8751 -16.8748 -16.8615 -16.8536 -16.8536 -16.8374
   -16.8373 -16.8166 -16.8092 -16.8092 -16.8024 -16.7812 -16.7680 -16.7643
   -16.7487 -16.7378 -16.7349 -16.7276 -16.7189 -16.7189 -16.7114 -16.7113
    -3.9416  -3.0169  -1.5952  -1.5947  -0.1089  -0.1087   1.7450   3.5700
     3.8938   3.8940   4.8813   4.8814   5.0877   5.5278   6.3254   6.4229
     9.0619   9.5759  10.0157  10.0162  10.2118  10.3677  11.8261  11.8266
    12.1946  12.4845  12.7495

          k = 0.1250 0.3749 0.3749 (  5948 PWs)   bands (ev):

   -17.0243 -17.0172 -17.0171 -17.0115 -17.0104 -17.0103 -17.0057 -17.0039
   -16.9639 -16.9486 -16.9485 -16.9382 -16.9245 -16.9096 -16.9076 -16.9074
   -16.8903 -16.8851 -16.8849 -16.8828 -16.8429 -16.8428 -16.8399 -16.8318
   -16.8112 -16.8066 -16.8064 -16.8026 -16.7974 -16.7951 -16.7950 -16.7801
   -16.7376 -16.7309 -16.7267 -16.7266 -16.7238 -16.7205 -16.7204 -16.7127
    -3.5017  -2.6695  -2.6689  -2.0939   0.3325   1.0648   1.0650   2.3300
     3.8711   4.4319   4.4322   5.3591   5.8009   5.8017   5.8116   6.8906
     9.2056   9.3413  10.0624  10.0625  11.1076  11.1079  11.4607  11.6353
    12.5795  12.5799  12.5851

          k = 0.3749 0.3749 0.3749 (  5926 PWs)   bands (ev):

   -17.0138 -17.0138 -17.0136 -17.0054 -17.0053 -17.0053 -17.0023 -17.0023
   -16.9689 -16.9556 -16.9555 -16.9555 -16.9178 -16.9178 -16.9087 -16.9086
   -16.9086 -16.9052 -16.9051 -16.9051 -16.8179 -16.8179 -16.8179 -16.8063
   -16.8062 -16.8062 -16.7994 -16.7994 -16.7917 -16.7916 -16.7916 -16.7835
   -16.7358 -16.7358 -16.7321 -16.7321 -16.7321 -16.7239 -16.7239 -16.7238
    -3.1363  -2.5462  -2.5462  -2.5452   0.5084   0.5089   0.5089   1.2707
     5.2347   5.2347   5.2354   6.1156   6.1159   6.1159   6.5694   6.5694
     7.9046   9.0096   9.0099   9.0099  11.2669  11.2671  11.2671  11.4911
    11.4911  12.1544  12.1545

     the Fermi energy is     7.6781 ev

!    total energy              =   -2524.30528163 Ry
     Harris-Foulkes estimate   =   -2524.30528213 Ry
     estimated scf accuracy    <       0.00000057 Ry

     total all-electron energy =    -33583.958291 Ry

     The total energy is the sum of the following terms:

     one-electron contribution =   -1164.47201698 Ry
     hartree contribution      =     663.06584592 Ry
     xc contribution           =    -313.44947377 Ry
     ewald contribution        =    -775.30535296 Ry
     one-center paw contrib.   =    -934.14470663 Ry
     smearing contrib. (-TS)   =       0.00042279 Ry

     total magnetization       =    -0.00 Bohr mag/cell
     absolute magnetization    =     0.00 Bohr mag/cell

     convergence has been achieved in   9 iterations

     Forces acting on atoms (cartesian axes, Ry/au):

     atom    1 type  1   force =     0.00000000    0.00000000    0.00000000
     atom    2 type  1   force =    -0.00007810   -0.00007810   -0.00007810
     atom    3 type  1   force =     0.00000000    0.00000000    0.00000000
     atom    4 type  1   force =    -0.00007810    0.00007810    0.00007810
     atom    5 type  1   force =     0.00000000    0.00000000    0.00000000
     atom    6 type  1   force =     0.00007810   -0.00007810    0.00007810
     atom    7 type  1   force =     0.00000000    0.00000000    0.00000000
     atom    8 type  1   force =     0.00007810    0.00007810   -0.00007810

     Total force =     0.000271     Total SCF correction =     0.000076
     SCF correction compared to forces is large: reduce conv_thr to get better values


     Computing stress (Cartesian axis) and pressure

          total   stress  (Ry/bohr**3)                   (kbar)     P=    5.98
   0.00004068   0.00000000   0.00000000          5.98      0.00      0.00
   0.00000000   0.00004068   0.00000000          0.00      5.98      0.00
   0.00000000   0.00000000   0.00004068          0.00      0.00      5.98


     number of scf cycles    =  50
     number of bfgs steps    =   1

     enthalpy old            =   -2524.3053007943 Ry
     enthalpy new            =   -2524.3052816278 Ry

     CASE: enthalpy_new > enthalpy_old

     new trust radius        =       0.0007634491 bohr
     new conv_thr            =       0.0000010000 Ry

     new unit-cell volume =   1291.96030 a.u.^3 (   191.44876 Ang^3 )
     density =      5.03967 g/cm^3

CELL_PARAMETERS (alat= 10.89022714)
   1.000106197   0.000000000   0.000000000
   0.000000000   1.000106197   0.000000000
   0.000000000   0.000000000   1.000106197

ATOMIC_POSITIONS (crystal)
Ge       0.500000000   0.000000000   0.500000000
Ge       0.250006101   0.250006101   0.250006101
Ge       0.500000000   0.500000000   0.000000000
Ge       0.250006101   0.749993899   0.749993899
Ge       0.000000000   0.000000000   0.000000000
Ge       0.749993899   0.250006101   0.749993899
Ge       0.000000000   0.500000000   0.500000000
Ge       0.749993899   0.749993899   0.250006101



     Writing output data file pw.save/
     NEW-OLD atomic charge density approx. for the potential

     Check: negative core charge=   -0.000002
     extrapolated charge  111.90642, renormalised to  112.00000

     Writing output data file pw.save/

     init_run     :      9.20s CPU      8.98s WALL (       1 calls)
     electrons    :   5141.69s CPU   4520.53s WALL (      50 calls)
     update_pot   :    370.09s CPU    375.57s WALL (      50 calls)
     forces       :    186.28s CPU    182.25s WALL (      50 calls)
     stress       :    592.59s CPU    582.18s WALL (      50 calls)

     Called by init_run:
     wfcinit      :      2.59s CPU      2.09s WALL (       1 calls)
     potinit      :      3.70s CPU      3.92s WALL (       1 calls)
     hinit0       :      2.61s CPU      2.54s WALL (       1 calls)

     Called by electrons:
     c_bands      :   3086.14s CPU   2463.12s WALL (     385 calls)
     sum_band     :    657.05s CPU    576.94s WALL (     385 calls)
     v_of_rho     :    120.80s CPU    122.60s WALL (     420 calls)
     newd         :     75.55s CPU    146.35s WALL (     420 calls)
     PAW_pot      :   1532.77s CPU   1555.68s WALL (     470 calls)
     mix_rho      :     13.08s CPU     11.50s WALL (     385 calls)

     Called by c_bands:
     init_us_2    :     33.91s CPU     27.87s WALL (    7368 calls)
     cegterg      :   2936.09s CPU   2334.49s WALL (    3080 calls)

     Called by sum_band:
     sum_band:bec :      0.84s CPU      0.77s WALL (    3480 calls)
     addusdens    :    191.59s CPU    199.53s WALL (     385 calls)

     Called by *egterg:
     h_psi        :   1971.36s CPU   1661.62s WALL (    8733 calls)
     s_psi        :    154.42s CPU     78.29s WALL (    8733 calls)
     g_psi        :     10.94s CPU      9.30s WALL (    5645 calls)
     cdiaghg      :    242.61s CPU    245.99s WALL (    8205 calls)

     Called by h_psi:
     h_psi:pot    :   1959.00s CPU   1643.12s WALL (    8733 calls)
     h_psi:calbec :    163.17s CPU     91.55s WALL (    8733 calls)
     vloc_psi     :   1641.16s CPU   1464.98s WALL (    8733 calls)
     add_vuspsi   :    154.52s CPU     86.34s WALL (    8733 calls)

     General routines
     calbec       :    275.73s CPU    151.23s WALL (   14213 calls)
     fft          :     53.97s CPU     54.89s WALL (   12480 calls)
     ffts         :      3.56s CPU      3.36s WALL (    1610 calls)
     fftw         :   1788.72s CPU   1588.99s WALL ( 1250066 calls)
     interpolate  :      4.88s CPU      5.27s WALL (     840 calls)
     davcio       :      0.00s CPU      0.02s WALL (       8 calls)

     Parallel routines
     fft_scatt_xy :    235.50s CPU    211.08s WALL ( 1264156 calls)
     fft_scatt_yz :    251.12s CPU    239.77s WALL ( 1264156 calls)

     PWSCF        :      1h48m CPU      1h37m WALL


   This run was terminated on:  12:50:23   7Nov2020            

=------------------------------------------------------------------------------=
   JOB DONE.
=------------------------------------------------------------------------------=
-------------------------------------------------------
Primary job  terminated normally, but 1 process returned
a non-zero exit code.. Per user-direction, the job has been aborted.
-------------------------------------------------------
--------------------------------------------------------------------------
mpirun detected that one or more processes exited with non-zero status, thus causing
the job to be terminated. The first process to do so was:

  Process name: [[16294,1],0]
  Exit code:    3
--------------------------------------------------------------------------
