--------------------------------------------------------------------------
WARNING: Linux kernel CMA support was requested via the
btl_vader_single_copy_mechanism MCA variable, but CMA support is
not available due to restrictive ptrace settings.

The vader shared memory BTL will fall back on another single-copy
mechanism if one is available. This may result in lower performance.

  Local host: DESKTOP-12SE80T
--------------------------------------------------------------------------

     Program PWSCF v.6.4.1 starts on  7Nov2020 at 11: 7:16 

     This program is part of the open-source Quantum ESPRESSO suite
     for quantum simulation of materials; please cite
         "P. Giannozzi et al., J. Phys.:Condens. Matter 21 395502 (2009);
         "P. Giannozzi et al., J. Phys.:Condens. Matter 29 465901 (2017);
          URL http://www.quantum-espresso.org", 
     in publications or presentations arising from this work. More details at
     http://www.quantum-espresso.org/quote

     Parallel version (MPI), running on     2 processors

     MPI processes distributed on     1 nodes
     R & G space division:  proc/nbgrp/npool/nimage =       2
     Waiting for input...
     Reading input from standard input

     Current dimensions of program PWSCF are:
     Max number of different atomic species (ntypx) = 10
     Max number of k-points (npk) =  40000
     Max angular momentum in pseudopotentials (lmaxx) =  3
               file Si.pbe-n-kjpaw_psl.1.0.0.UPF: wavefunction(s)  3S 3P renormalized

     Subspace diagonalization in iterative solution of the eigenvalue problem:
     a serial algorithm will be used

     Found symmetry operation: I + (  0.0000  0.5000 -0.5000)
     This is a supercell, fractional translations are disabled
     Message from routine setup:
     DEPRECATED: symmetry with ibrav=0, use correct ibrav instead

     Parallelization info
     --------------------
     sticks:   dense  smooth     PW     G-vecs:    dense   smooth      PW
     Min         740     740    210                21572    21572    3308
     Max         741     741    211                21575    21575    3311
     Sum        1481    1481    421                43147    43147    6619



     bravais-lattice index     =            0
     lattice parameter (alat)  =      10.3344  a.u.
     unit-cell volume          =    1103.7127 (a.u.)^3
     number of atoms/cell      =            8
     number of atomic types    =            1
     number of electrons       =        32.00
     number of Kohn-Sham states=           20
     kinetic-energy cutoff     =      44.0000  Ry
     charge density cutoff     =     175.0000  Ry
     convergence threshold     =      1.0E-06
     mixing beta               =       0.7000
     number of iterations used =            8  plain     mixing
     Exchange-correlation      = SLA PW PBX PBC ( 1  4  3  4 0 0)
     nstep                     =           50


     celldm(1)=  10.334402  celldm(2)=   0.000000  celldm(3)=   0.000000
     celldm(4)=   0.000000  celldm(5)=   0.000000  celldm(6)=   0.000000

     crystal axes: (cart. coord. in units of alat)
               a(1) = (   1.000000   0.000000   0.000000 )  
               a(2) = (   0.000000   1.000000   0.000000 )  
               a(3) = (   0.000000   0.000000   1.000000 )  

     reciprocal axes: (cart. coord. in units 2 pi/alat)
               b(1) = (  1.000000  0.000000  0.000000 )  
               b(2) = (  0.000000  1.000000  0.000000 )  
               b(3) = (  0.000000  0.000000  1.000000 )  


     PseudoPot. # 1 for Si read from file:
     ./potentials/Si.pbe-n-kjpaw_psl.1.0.0.UPF
     MD5 check sum: c39c59da582df4a0d9f10159256ea34e
     Pseudo is Projector augmented-wave + core cor, Zval =  4.0
     Generated using "atomic" code by A. Dal Corso v.6.3
     Shape of augmentation charge: PSQ
     Using radial grid of 1141 points,  6 beta functions with: 
                l(1) =   0
                l(2) =   0
                l(3) =   1
                l(4) =   1
                l(5) =   2
                l(6) =   2
     Q(r) pseudized with 0 coefficients 


     atomic species   valence    mass     pseudopotential
        Si             4.00    28.08500     Si( 1.00)

     Starting magnetic structure 
     atomic species   magnetization
        Si           1.000

     24 Sym. Ops. (no inversion) found



   Cartesian axes

     site n.     atom                  positions (alat units)
         1           Si  tau(   1) = (   0.2500000   0.7500000   0.2500000  )
         2           Si  tau(   2) = (   0.0000000   0.0000000   0.5000000  )
         3           Si  tau(   3) = (   0.2500000   0.2500000   0.7500000  )
         4           Si  tau(   4) = (   0.0000000   0.5000000   0.0000000  )
         5           Si  tau(   5) = (   0.7500000   0.7500000   0.7500000  )
         6           Si  tau(   6) = (   0.5000000   0.0000000   0.0000000  )
         7           Si  tau(   7) = (   0.7500000   0.2500000   0.2500000  )
         8           Si  tau(   8) = (   0.5000000   0.5000000   0.5000000  )

     number of k points=    10  Methfessel-Paxton smearing, width (Ry)=  0.0200
                       cart. coord. in units 2pi/alat
        k(    1) = (   0.0833333   0.0833333   0.0833333), wk =   0.0370370
        k(    2) = (   0.0833333   0.0833333   0.2500000), wk =   0.1111111
        k(    3) = (   0.0833333   0.0833333   0.4166667), wk =   0.1111111
        k(    4) = (   0.0833333   0.2500000   0.2500000), wk =   0.1111111
        k(    5) = (   0.0833333   0.2500000   0.4166667), wk =   0.2222222
        k(    6) = (   0.0833333   0.4166667   0.4166667), wk =   0.1111111
        k(    7) = (   0.2500000   0.2500000   0.2500000), wk =   0.0370370
        k(    8) = (   0.2500000   0.2500000   0.4166667), wk =   0.1111111
        k(    9) = (   0.2500000   0.4166667   0.4166667), wk =   0.1111111
        k(   10) = (   0.4166667   0.4166667   0.4166667), wk =   0.0370370

     Dense  grid:    43147 G-vectors     FFT dimensions: (  45,  45,  45)

     Estimated max dynamical RAM per process >     116.29 MB

     Estimated total dynamical RAM >     232.57 MB
     Generating pointlists ...
     new r_m :   0.1786 (alat units)  1.8459 (a.u.) for type    1

     Check: negative core charge=   -0.000001

     Initial potential from superposition of free atoms

     starting charge   31.99553, renormalised to   32.00000

     negative rho (up, down):  0.000E+00 2.298E-01
     Starting wfcs are   32 randomized atomic wfcs
     Checking if some PAW data can be deallocated... 

     total cpu time spent up to now is        8.6 secs

     Self-consistent Calculation

     iteration #  1     ecut=    44.00 Ry     beta= 0.70
     Davidson diagonalization with overlap
     ethr =  1.00E-02,  avg # of iterations =  3.0

     total cpu time spent up to now is       18.0 secs

     total energy              =    -372.82937383 Ry
     Harris-Foulkes estimate   =    -370.90675109 Ry
     estimated scf accuracy    <       0.42861379 Ry

     total magnetization       =     6.42 Bohr mag/cell
     absolute magnetization    =     6.42 Bohr mag/cell

     iteration #  2     ecut=    44.00 Ry     beta= 0.70
     Davidson diagonalization with overlap
     ethr =  1.34E-03,  avg # of iterations =  3.5

     total cpu time spent up to now is       26.5 secs

     total energy              =    -373.77925070 Ry
     Harris-Foulkes estimate   =    -373.31881606 Ry
     estimated scf accuracy    <       0.09735346 Ry

     total magnetization       =     0.60 Bohr mag/cell
     absolute magnetization    =     0.64 Bohr mag/cell

     iteration #  3     ecut=    44.00 Ry     beta= 0.70
     Davidson diagonalization with overlap
     ethr =  3.04E-04,  avg # of iterations =  2.2

     total cpu time spent up to now is       34.3 secs

     total energy              =    -373.81287290 Ry
     Harris-Foulkes estimate   =    -373.81169900 Ry
     estimated scf accuracy    <       0.00064465 Ry

     total magnetization       =     0.01 Bohr mag/cell
     absolute magnetization    =     0.07 Bohr mag/cell

     iteration #  4     ecut=    44.00 Ry     beta= 0.70
     Davidson diagonalization with overlap
     ethr =  2.01E-06,  avg # of iterations =  7.6

     total cpu time spent up to now is       49.0 secs

     total energy              =    -373.81397961 Ry
     Harris-Foulkes estimate   =    -373.81411963 Ry
     estimated scf accuracy    <       0.00033997 Ry

     total magnetization       =     0.00 Bohr mag/cell
     absolute magnetization    =     0.02 Bohr mag/cell

     iteration #  5     ecut=    44.00 Ry     beta= 0.70
     Davidson diagonalization with overlap
     ethr =  1.06E-06,  avg # of iterations =  3.2

     total cpu time spent up to now is       59.3 secs

     total energy              =    -373.81404766 Ry
     Harris-Foulkes estimate   =    -373.81405366 Ry
     estimated scf accuracy    <       0.00003556 Ry

     total magnetization       =     0.00 Bohr mag/cell
     absolute magnetization    =     0.02 Bohr mag/cell

     iteration #  6     ecut=    44.00 Ry     beta= 0.70
     Davidson diagonalization with overlap
     ethr =  1.11E-07,  avg # of iterations =  2.8

     total cpu time spent up to now is       69.3 secs

     total energy              =    -373.81408523 Ry
     Harris-Foulkes estimate   =    -373.81405809 Ry
     estimated scf accuracy    <       0.00000831 Ry

     total magnetization       =     0.00 Bohr mag/cell
     absolute magnetization    =     0.01 Bohr mag/cell

     iteration #  7     ecut=    44.00 Ry     beta= 0.70
     Davidson diagonalization with overlap
     ethr =  2.60E-08,  avg # of iterations =  1.8

     Magnetic moment per site:
     atom:    1    charge:    1.8425    magn:   -0.0001    constr:    0.0000
     atom:    2    charge:    1.8425    magn:   -0.0002    constr:    0.0000
     atom:    3    charge:    1.8425    magn:   -0.0001    constr:    0.0000
     atom:    4    charge:    1.8425    magn:   -0.0002    constr:    0.0000
     atom:    5    charge:    1.8425    magn:   -0.0001    constr:    0.0000
     atom:    6    charge:    1.8425    magn:   -0.0002    constr:    0.0000
     atom:    7    charge:    1.8425    magn:   -0.0001    constr:    0.0000
     atom:    8    charge:    1.8426    magn:   -0.0000    constr:    0.0000

     total cpu time spent up to now is       77.8 secs

     End of self-consistent calculation

 ------ SPIN UP ------------


          k = 0.0833 0.0833 0.0833 (  5443 PWs)   bands (ev):

    -5.7461  -2.3547  -2.3540  -2.3540  -1.1142  -1.1135  -1.1135   2.8756
     2.8760   2.8760   3.2613   3.2613   3.2617   5.1251   5.8442   5.8442
     6.7966   6.7966   6.7968   7.3569

          k = 0.0833 0.0833 0.2500 (  5425 PWs)   bands (ev):

    -5.5091  -3.4417  -2.2660  -2.2655  -1.1069  -1.1065   0.2158   2.3154
     2.3156   3.0757   3.0760   3.1411   3.4740   4.0583   5.2087   5.3869
     6.9046   7.5224   7.5226   7.8749

          k = 0.0833 0.0833 0.4167 (  5442 PWs)   bands (ev):

    -5.0391  -4.3449  -2.1636  -2.1631  -1.1146  -1.1142   1.5669   1.9922
     1.9924   2.7551   2.7552   2.8607   3.6764   3.8908   4.4700   4.4892
     7.2185   7.7165   8.7775   9.0076

          k = 0.0833 0.2500 0.2500 (  5430 PWs)   bands (ev):

    -5.2767  -3.2770  -3.2765  -2.3712  -1.0173  -0.0032  -0.0029   1.8678
     2.6291   2.6292   3.0577   3.4112   3.4116   3.6301   4.6263   5.6350
     7.2544   7.7281   7.7281   8.6300

          k = 0.0833 0.2500 0.4167 (  5435 PWs)   bands (ev):

    -4.8173  -4.1431  -2.9805  -2.6349  -0.7686  -0.3837   1.0410   1.8384
     2.0395   2.1495   3.1737   3.4106   3.6126   3.8601   4.1068   5.0178
     8.1115   8.1314   8.5869   9.4303

          k = 0.0833 0.4167 0.4167 (  5438 PWs)   bands (ev):

    -4.3825  -3.7561  -3.7556  -3.2244  -0.2660   0.3600   0.3602   1.1618
     2.0499   2.5403   2.5403   3.1377   4.2962   4.3617   4.3622   5.0700
     8.0135   8.7219   8.9389   8.9396

          k = 0.2500 0.2500 0.2500 (  5440 PWs)   bands (ev):

    -5.0508  -3.1727  -3.1718  -3.1718  -0.3448  -0.3445  -0.3445   2.0939
     2.5183   2.5188   2.5188   3.8218   3.8218   3.8222   5.2382   5.2382
     7.5265   7.5265   7.5267   7.9391

          k = 0.2500 0.2500 0.4167 (  5444 PWs)   bands (ev):

    -4.6072  -3.9657  -3.0492  -3.0486  -0.6769  -0.6768   0.3673   1.1669
     2.5756   2.5761   3.5883   3.8843   3.8845   4.1898   4.6927   4.7188
     7.9965   8.2224   8.3564   8.3565

          k = 0.2500 0.4167 0.4167 (  5459 PWs)   bands (ev):

    -4.2027  -3.6477  -3.6471  -3.2873  -0.6997  -0.3031  -0.3030   0.3327
     3.0415   3.4601   3.4603   4.1634   4.4209   4.4573   4.4579   5.0063
     8.1208   8.1584   8.5383   8.5387

          k = 0.4167 0.4167 0.4167 (  5469 PWs)   bands (ev):

    -3.8807  -3.5203  -3.5194  -3.5194  -0.7910  -0.7910  -0.7910  -0.3971
     4.2259   4.2266   4.2266   4.6316   4.6316   4.6321   4.8534   4.8534
     7.5037   7.9665   7.9667   7.9667

 ------ SPIN DOWN ----------


          k = 0.0833 0.0833 0.0833 (  5443 PWs)   bands (ev):

    -5.7468  -2.3556  -2.3549  -2.3549  -1.1151  -1.1146  -1.1146   2.8750
     2.8754   2.8754   3.2605   3.2605   3.2609   5.1239   5.8428   5.8428
     6.7972   6.7972   6.7973   7.3573

          k = 0.0833 0.0833 0.2500 (  5425 PWs)   bands (ev):

    -5.5097  -3.4425  -2.2669  -2.2664  -1.1079  -1.1075   0.2148   2.3150
     2.3153   3.0751   3.0753   3.1405   3.4732   4.0572   5.2076   5.3857
     6.9050   7.5228   7.5229   7.8755

          k = 0.0833 0.0833 0.4167 (  5442 PWs)   bands (ev):

    -5.0397  -4.3456  -2.1646  -2.1641  -1.1156  -1.1153   1.5658   1.9919
     1.9921   2.7546   2.7547   2.8596   3.6756   3.8899   4.4691   4.4882
     7.2188   7.7167   8.7783   9.0078

          k = 0.0833 0.2500 0.2500 (  5430 PWs)   bands (ev):

    -5.2774  -3.2778  -3.2774  -2.3722  -1.0182  -0.0042  -0.0040   1.8676
     2.6286   2.6288   3.0567   3.4105   3.4109   3.6292   4.6253   5.6336
     7.2549   7.7284   7.7284   8.6297

          k = 0.0833 0.2500 0.4167 (  5435 PWs)   bands (ev):

    -4.8180  -4.1438  -2.9814  -2.6359  -0.7695  -0.3846   1.0400   1.8381
     2.0385   2.1491   3.1731   3.4100   3.6119   3.8594   4.1059   5.0166
     8.1117   8.1316   8.5868   9.2068

          k = 0.0833 0.4167 0.4167 (  5438 PWs)   bands (ev):

    -4.3833  -3.7569  -3.7564  -3.2253  -0.2669   0.3592   0.3593   1.1609
     2.0496   2.5398   2.5399   3.1372   4.2952   4.3607   4.3613   5.0688
     8.0138   8.7219   8.9390   8.9397

          k = 0.2500 0.2500 0.2500 (  5440 PWs)   bands (ev):

    -5.0515  -3.1735  -3.1727  -3.1727  -0.3457  -0.3454  -0.3454   2.0931
     2.5178   2.5184   2.5184   3.8209   3.8209   3.8213   5.2369   5.2369
     7.5269   7.5269   7.5271   7.9390

          k = 0.2500 0.2500 0.4167 (  5444 PWs)   bands (ev):

    -4.6079  -3.9665  -3.0501  -3.0496  -0.6776  -0.6775   0.3665   1.1662
     2.5750   2.5755   3.5875   3.8835   3.8837   4.1888   4.6916   4.7178
     7.9968   8.2222   8.3566   8.3566

          k = 0.2500 0.4167 0.4167 (  5459 PWs)   bands (ev):

    -4.2035  -3.6485  -3.6480  -3.2882  -0.7003  -0.3037  -0.3037   0.3320
     3.0409   3.4593   3.4595   4.1625   4.4198   4.4563   4.4569   5.0051
     8.1206   8.1585   8.5381   8.5384

          k = 0.4167 0.4167 0.4167 (  5469 PWs)   bands (ev):

    -3.8816  -3.5211  -3.5203  -3.5203  -0.7915  -0.7915  -0.7915  -0.3977
     4.2249   4.2256   4.2256   4.6305   4.6305   4.6310   4.8522   4.8522
     7.5036   7.9662   7.9665   7.9665

     the Fermi energy is     6.6047 ev

!    total energy              =    -373.81408646 Ry
     Harris-Foulkes estimate   =    -373.81408666 Ry
     estimated scf accuracy    <       0.00000058 Ry

     total all-electron energy =     -4640.581006 Ry

     The total energy is the sum of the following terms:

     one-electron contribution =      22.29596614 Ry
     hartree contribution      =       4.47589233 Ry
     xc contribution           =     -49.13284434 Ry
     ewald contribution        =     -66.71988859 Ry
     one-center paw contrib.   =    -284.73353928 Ry
     smearing contrib. (-TS)   =       0.00032728 Ry

     total magnetization       =     0.00 Bohr mag/cell
     absolute magnetization    =     0.00 Bohr mag/cell

     convergence has been achieved in   7 iterations

     Forces acting on atoms (cartesian axes, Ry/au):

     atom    1 type  1   force =     0.00010641   -0.00010641    0.00010641
     atom    2 type  1   force =     0.00000000    0.00000000    0.00000000
     atom    3 type  1   force =     0.00010641    0.00010641   -0.00010641
     atom    4 type  1   force =     0.00000000    0.00000000    0.00000000
     atom    5 type  1   force =    -0.00010641   -0.00010641   -0.00010641
     atom    6 type  1   force =     0.00000000    0.00000000    0.00000000
     atom    7 type  1   force =    -0.00010641    0.00010641    0.00010641
     atom    8 type  1   force =     0.00000000    0.00000000    0.00000000

     Total force =     0.000369     Total SCF correction =     0.000688
     SCF correction compared to forces is large: reduce conv_thr to get better values


     Computing stress (Cartesian axis) and pressure

          total   stress  (Ry/bohr**3)                   (kbar)     P=    0.24
   0.00000163   0.00000000   0.00000000          0.24      0.00      0.00
   0.00000000   0.00000163   0.00000000          0.00      0.24      0.00
   0.00000000   0.00000000   0.00000163          0.00      0.00      0.24


     BFGS Geometry Optimization

     bfgs converged in   1 scf cycles and   0 bfgs steps
     (criteria: energy <  1.0E-04 Ry, force <  1.0E-03Ry/Bohr, cell <  5.0E-01kbar)

     End of BFGS Geometry Optimization

     Final enthalpy =    -373.8140864608 Ry
Begin final coordinates
     new unit-cell volume =   1103.71273 a.u.^3 (   163.55335 Ang^3 )
     density =      2.28115 g/cm^3

CELL_PARAMETERS (alat= 10.33440199)
   1.000000000   0.000000000   0.000000000
   0.000000000   1.000000000   0.000000000
   0.000000000   0.000000000   1.000000000

ATOMIC_POSITIONS (crystal)
Si       0.250000000   0.750000000   0.250000000
Si       0.000000000   0.000000000   0.500000000
Si       0.250000000   0.250000000   0.750000000
Si       0.000000000   0.500000000   0.000000000
Si       0.750000000   0.750000000   0.750000000
Si       0.500000000   0.000000000   0.000000000
Si       0.750000000   0.250000000   0.250000000
Si       0.500000000   0.500000000   0.500000000
End final coordinates



     Writing output data file pw.save/

     A final scf calculation at the relaxed structure.
     The G-vectors are recalculated for the final unit cell
     Results may differ from those at the preceding step.

     Parallelization info
     --------------------
     sticks:   dense  smooth     PW     G-vecs:    dense   smooth      PW
     Min         740     740    210                21572    21572    3308
     Max         741     741    211                21575    21575    3311
     Sum        1481    1481    421                43147    43147    6619



     bravais-lattice index     =            0
     lattice parameter (alat)  =      10.3344  a.u.
     unit-cell volume          =    1103.7127 (a.u.)^3
     number of atoms/cell      =            8
     number of atomic types    =            1
     number of electrons       =        32.00
     number of Kohn-Sham states=           20
     kinetic-energy cutoff     =      44.0000  Ry
     charge density cutoff     =     175.0000  Ry
     convergence threshold     =      1.0E-06
     mixing beta               =       0.7000
     number of iterations used =            8  plain     mixing
     Exchange-correlation      = SLA PW PBX PBC ( 1  4  3  4 0 0)

     celldm(1)=  10.334402  celldm(2)=   0.000000  celldm(3)=   0.000000
     celldm(4)=   0.000000  celldm(5)=   0.000000  celldm(6)=   0.000000

     crystal axes: (cart. coord. in units of alat)
               a(1) = (   1.000000   0.000000   0.000000 )  
               a(2) = (   0.000000   1.000000   0.000000 )  
               a(3) = (   0.000000   0.000000   1.000000 )  

     reciprocal axes: (cart. coord. in units 2 pi/alat)
               b(1) = (  1.000000  0.000000  0.000000 )  
               b(2) = (  0.000000  1.000000  0.000000 )  
               b(3) = (  0.000000  0.000000  1.000000 )  


     PseudoPot. # 1 for Si read from file:
     ./potentials/Si.pbe-n-kjpaw_psl.1.0.0.UPF
     MD5 check sum: c39c59da582df4a0d9f10159256ea34e
     Pseudo is Projector augmented-wave + core cor, Zval =  4.0
     Generated using "atomic" code by A. Dal Corso v.6.3
     Shape of augmentation charge: PSQ
     Using radial grid of 1141 points,  6 beta functions with: 
                l(1) =   0
                l(2) =   0
                l(3) =   1
                l(4) =   1
                l(5) =   2
                l(6) =   2
     Q(r) pseudized with 0 coefficients 


     atomic species   valence    mass     pseudopotential
        Si             4.00    28.08500     Si( 1.00)

     Starting magnetic structure 
     atomic species   magnetization
        Si          -0.000

     24 Sym. Ops. (no inversion) found



   Cartesian axes

     site n.     atom                  positions (alat units)
         1           Si  tau(   1) = (   0.2500000   0.7500000   0.2500000  )
         2           Si  tau(   2) = (   0.0000000   0.0000000   0.5000000  )
         3           Si  tau(   3) = (   0.2500000   0.2500000   0.7500000  )
         4           Si  tau(   4) = (   0.0000000   0.5000000   0.0000000  )
         5           Si  tau(   5) = (   0.7500000   0.7500000   0.7500000  )
         6           Si  tau(   6) = (   0.5000000   0.0000000   0.0000000  )
         7           Si  tau(   7) = (   0.7500000   0.2500000   0.2500000  )
         8           Si  tau(   8) = (   0.5000000   0.5000000   0.5000000  )

     number of k points=    10  Methfessel-Paxton smearing, width (Ry)=  0.0200
                       cart. coord. in units 2pi/alat
        k(    1) = (   0.0833333   0.0833333   0.0833333), wk =   0.0370370
        k(    2) = (   0.0833333   0.0833333   0.2500000), wk =   0.1111111
        k(    3) = (   0.0833333   0.0833333   0.4166667), wk =   0.1111111
        k(    4) = (   0.0833333   0.2500000   0.2500000), wk =   0.1111111
        k(    5) = (   0.0833333   0.2500000   0.4166667), wk =   0.2222222
        k(    6) = (   0.0833333   0.4166667   0.4166667), wk =   0.1111111
        k(    7) = (   0.2500000   0.2500000   0.2500000), wk =   0.0370370
        k(    8) = (   0.2500000   0.2500000   0.4166667), wk =   0.1111111
        k(    9) = (   0.2500000   0.4166667   0.4166667), wk =   0.1111111
        k(   10) = (   0.4166667   0.4166667   0.4166667), wk =   0.0370370

     Dense  grid:    43147 G-vectors     FFT dimensions: (  45,  45,  45)

     Estimated max dynamical RAM per process >     116.45 MB

     Estimated total dynamical RAM >     232.90 MB
     Generating pointlists ...

     Check: negative core charge=   -0.000001

     Initial potential from superposition of free atoms

     starting charge   31.99553, renormalised to   32.00000
     Starting wfcs are   32 randomized atomic wfcs
     Checking if some PAW data can be deallocated... 

     total cpu time spent up to now is       94.5 secs

     Self-consistent Calculation

     iteration #  1     ecut=    44.00 Ry     beta= 0.70
     Davidson diagonalization with overlap
     c_bands:  1 eigenvalues not converged
     c_bands:  1 eigenvalues not converged
     ethr =  1.00E-06,  avg # of iterations = 16.1

     total cpu time spent up to now is      116.7 secs

     total energy              =    -373.80493265 Ry
     Harris-Foulkes estimate   =    -373.85692538 Ry
     estimated scf accuracy    <       0.21901444 Ry

     total magnetization       =    -0.00 Bohr mag/cell
     absolute magnetization    =     0.00 Bohr mag/cell

     iteration #  2     ecut=    44.00 Ry     beta= 0.70
     Davidson diagonalization with overlap
     ethr =  6.84E-04,  avg # of iterations =  1.0

     total cpu time spent up to now is      124.8 secs

     total energy              =    -373.81295688 Ry
     Harris-Foulkes estimate   =    -373.81352407 Ry
     estimated scf accuracy    <       0.00921001 Ry

     total magnetization       =    -0.00 Bohr mag/cell
     absolute magnetization    =     0.00 Bohr mag/cell

     iteration #  3     ecut=    44.00 Ry     beta= 0.70
     Davidson diagonalization with overlap
     ethr =  2.88E-05,  avg # of iterations =  2.0

     total cpu time spent up to now is      133.6 secs

     total energy              =    -373.81399582 Ry
     Harris-Foulkes estimate   =    -373.81399423 Ry
     estimated scf accuracy    <       0.00010797 Ry

     total magnetization       =     0.00 Bohr mag/cell
     absolute magnetization    =     0.00 Bohr mag/cell

     iteration #  4     ecut=    44.00 Ry     beta= 0.70
     Davidson diagonalization with overlap
     ethr =  3.37E-07,  avg # of iterations =  4.6

     total cpu time spent up to now is      145.5 secs

     total energy              =    -373.81408554 Ry
     Harris-Foulkes estimate   =    -373.81408568 Ry
     estimated scf accuracy    <       0.00000656 Ry

     total magnetization       =     0.00 Bohr mag/cell
     absolute magnetization    =     0.00 Bohr mag/cell

     iteration #  5     ecut=    44.00 Ry     beta= 0.70
     Davidson diagonalization with overlap
     ethr =  2.05E-08,  avg # of iterations =  2.5

     total cpu time spent up to now is      155.3 secs

     total energy              =    -373.81408652 Ry
     Harris-Foulkes estimate   =    -373.81408794 Ry
     estimated scf accuracy    <       0.00000270 Ry

     total magnetization       =     0.00 Bohr mag/cell
     absolute magnetization    =     0.00 Bohr mag/cell

     iteration #  6     ecut=    44.00 Ry     beta= 0.70
     Davidson diagonalization with overlap
     ethr =  8.45E-09,  avg # of iterations =  2.0

     Magnetic moment per site:
     atom:    1    charge:    1.8425    magn:    0.0000    constr:    0.0000
     atom:    2    charge:    1.8425    magn:    0.0000    constr:    0.0000
     atom:    3    charge:    1.8425    magn:    0.0000    constr:    0.0000
     atom:    4    charge:    1.8425    magn:    0.0000    constr:    0.0000
     atom:    5    charge:    1.8425    magn:    0.0000    constr:    0.0000
     atom:    6    charge:    1.8425    magn:    0.0000    constr:    0.0000
     atom:    7    charge:    1.8425    magn:    0.0000    constr:    0.0000
     atom:    8    charge:    1.8422    magn:   -0.0000    constr:    0.0000

     total cpu time spent up to now is      164.4 secs

     End of self-consistent calculation

 ------ SPIN UP ------------


          k = 0.0833 0.0833 0.0833 (  5443 PWs)   bands (ev):

    -5.7456  -2.3537  -2.3537  -2.3537  -1.1133  -1.1132  -1.1132   2.8763
     2.8764   2.8764   3.2618   3.2618   3.2620   5.1255   5.8446   5.8446
     6.7973   6.7973   6.7974   7.3575

          k = 0.0833 0.0833 0.2500 (  5425 PWs)   bands (ev):

    -5.5085  -3.4411  -2.2652  -2.2652  -1.1062  -1.1062   0.2164   2.3160
     2.3161   3.0763   3.0764   3.1416   3.4745   4.0588   5.2092   5.3874
     6.9052   7.5231   7.5232   7.8755

          k = 0.0833 0.0833 0.4167 (  5442 PWs)   bands (ev):

    -5.0385  -4.3443  -2.1629  -2.1628  -1.1139  -1.1139   1.5674   1.9928
     1.9928   2.7556   2.7557   2.8612   3.6769   3.8913   4.4705   4.4897
     7.2191   7.7172   8.7782   9.0082

          k = 0.0833 0.2500 0.2500 (  5430 PWs)   bands (ev):

    -5.2762  -3.2763  -3.2762  -2.3707  -1.0168  -0.0026  -0.0025   1.8684
     2.6297   2.6297   3.0582   3.4119   3.4119   3.6305   4.6267   5.6354
     7.2550   7.7288   7.7288   8.6307

          k = 0.0833 0.2500 0.4167 (  5435 PWs)   bands (ev):

    -4.8168  -4.1425  -2.9800  -2.6344  -0.7680  -0.3831   1.0415   1.8389
     2.0400   2.1500   3.1742   3.4111   3.6131   3.8606   4.1073   5.0182
     8.1122   8.1320   8.5875   9.4312

          k = 0.0833 0.4167 0.4167 (  5438 PWs)   bands (ev):

    -4.3820  -3.7553  -3.7553  -3.2238  -0.2655   0.3606   0.3607   1.1623
     2.0505   2.5408   2.5408   3.1382   4.2967   4.3624   4.3624   5.0705
     8.0142   8.7227   8.9398   8.9399

          k = 0.2500 0.2500 0.2500 (  5440 PWs)   bands (ev):

    -5.0503  -3.1716  -3.1715  -3.1715  -0.3441  -0.3440  -0.3440   2.0944
     2.5191   2.5192   2.5192   3.8223   3.8223   3.8225   5.2386   5.2386
     7.5272   7.5272   7.5272   7.9399

          k = 0.2500 0.2500 0.4167 (  5444 PWs)   bands (ev):

    -4.6066  -3.9652  -3.0484  -3.0483  -0.6763  -0.6762   0.3678   1.1675
     2.5763   2.5764   3.5888   3.8848   3.8850   4.1903   4.6932   4.7193
     7.9972   8.2230   8.3571   8.3571

          k = 0.2500 0.4167 0.4167 (  5459 PWs)   bands (ev):

    -4.2022  -3.6469  -3.6468  -3.2867  -0.6992  -0.3025  -0.3025   0.3332
     3.0421   3.4606   3.4607   4.1639   4.4213   4.4581   4.4581   5.0068
     8.1216   8.1590   8.5391   8.5391

          k = 0.4167 0.4167 0.4167 (  5469 PWs)   bands (ev):

    -3.8802  -3.5192  -3.5191  -3.5191  -0.7905  -0.7904  -0.7904  -0.3966
     4.2268   4.2269   4.2269   4.6322   4.6322   4.6324   4.8539   4.8539
     7.5045   7.9673   7.9673   7.9673

 ------ SPIN DOWN ----------


          k = 0.0833 0.0833 0.0833 (  5443 PWs)   bands (ev):

    -5.7456  -2.3538  -2.3537  -2.3537  -1.1133  -1.1132  -1.1132   2.8762
     2.8764   2.8764   3.2618   3.2618   3.2620   5.1255   5.8446   5.8446
     6.7974   6.7974   6.7974   7.3576

          k = 0.0833 0.0833 0.2500 (  5425 PWs)   bands (ev):

    -5.5085  -3.4411  -2.2652  -2.2652  -1.1062  -1.1062   0.2164   2.3160
     2.3161   3.0763   3.0764   3.1416   3.4745   4.0588   5.2092   5.3874
     6.9053   7.5232   7.5232   7.8756

          k = 0.0833 0.0833 0.4167 (  5442 PWs)   bands (ev):

    -5.0385  -4.3443  -2.1629  -2.1628  -1.1139  -1.1139   1.5674   1.9928
     1.9928   2.7556   2.7557   2.8612   3.6769   3.8913   4.4705   4.4897
     7.2191   7.7172   8.7781   9.0083

          k = 0.0833 0.2500 0.2500 (  5430 PWs)   bands (ev):

    -5.2762  -3.2763  -3.2762  -2.3707  -1.0168  -0.0026  -0.0025   1.8684
     2.6297   2.6297   3.0582   3.4119   3.4119   3.6305   4.6267   5.6354
     7.2551   7.7288   7.7288   8.6307

          k = 0.0833 0.2500 0.4167 (  5435 PWs)   bands (ev):

    -4.8168  -4.1425  -2.9800  -2.6344  -0.7680  -0.3831   1.0415   1.8389
     2.0400   2.1500   3.1742   3.4111   3.6131   3.8606   4.1073   5.0182
     8.1122   8.1320   8.5875   9.4310

          k = 0.0833 0.4167 0.4167 (  5438 PWs)   bands (ev):

    -4.3820  -3.7553  -3.7553  -3.2238  -0.2655   0.3606   0.3607   1.1623
     2.0505   2.5408   2.5408   3.1382   4.2967   4.3624   4.3624   5.0705
     8.0142   8.7227   8.9398   8.9399

          k = 0.2500 0.2500 0.2500 (  5440 PWs)   bands (ev):

    -5.0503  -3.1716  -3.1715  -3.1715  -0.3442  -0.3440  -0.3440   2.0944
     2.5191   2.5192   2.5192   3.8223   3.8223   3.8225   5.2386   5.2386
     7.5272   7.5272   7.5272   7.9399

          k = 0.2500 0.2500 0.4167 (  5444 PWs)   bands (ev):

    -4.6066  -3.9652  -3.0484  -3.0483  -0.6763  -0.6762   0.3678   1.1675
     2.5763   2.5764   3.5888   3.8848   3.8850   4.1903   4.6932   4.7193
     7.9972   8.2230   8.3571   8.3571

          k = 0.2500 0.4167 0.4167 (  5459 PWs)   bands (ev):

    -4.2022  -3.6469  -3.6468  -3.2867  -0.6992  -0.3026  -0.3025   0.3332
     3.0421   3.4606   3.4607   4.1639   4.4213   4.4581   4.4581   5.0068
     8.1216   8.1590   8.5391   8.5391

          k = 0.4167 0.4167 0.4167 (  5469 PWs)   bands (ev):

    -3.8802  -3.5192  -3.5191  -3.5191  -0.7905  -0.7904  -0.7904  -0.3966
     4.2268   4.2269   4.2269   4.6322   4.6322   4.6324   4.8539   4.8539
     7.5045   7.9673   7.9673   7.9673

     the Fermi energy is     6.6051 ev

!    total energy              =    -373.81408688 Ry
     Harris-Foulkes estimate   =    -373.81408691 Ry
     estimated scf accuracy    <       0.00000007 Ry

     total all-electron energy =     -4640.581007 Ry

     The total energy is the sum of the following terms:

     one-electron contribution =      22.29603996 Ry
     hartree contribution      =       4.47523246 Ry
     xc contribution           =     -49.13249028 Ry
     ewald contribution        =     -66.71988859 Ry
     one-center paw contrib.   =    -284.73330772 Ry
     smearing contrib. (-TS)   =       0.00032729 Ry

     total magnetization       =     0.00 Bohr mag/cell
     absolute magnetization    =     0.00 Bohr mag/cell

     convergence has been achieved in   6 iterations

     Forces acting on atoms (cartesian axes, Ry/au):

     atom    1 type  1   force =     0.00008717   -0.00008717    0.00008717
     atom    2 type  1   force =     0.00000000    0.00000000    0.00000000
     atom    3 type  1   force =     0.00008717    0.00008717   -0.00008717
     atom    4 type  1   force =     0.00000000    0.00000000    0.00000000
     atom    5 type  1   force =    -0.00008717   -0.00008717   -0.00008717
     atom    6 type  1   force =     0.00000000    0.00000000    0.00000000
     atom    7 type  1   force =    -0.00008717    0.00008717    0.00008717
     atom    8 type  1   force =     0.00000000    0.00000000    0.00000000

     Total force =     0.000302     Total SCF correction =     0.000028


     Computing stress (Cartesian axis) and pressure

          total   stress  (Ry/bohr**3)                   (kbar)     P=    0.12
   0.00000081   0.00000000   0.00000000          0.12      0.00      0.00
   0.00000000   0.00000081   0.00000000          0.00      0.12      0.00
   0.00000000   0.00000000   0.00000081          0.00      0.00      0.12


     Writing output data file pw.save/

     init_run     :     15.58s CPU     14.68s WALL (       2 calls)
     electrons    :    160.33s CPU    139.19s WALL (       2 calls)
     forces       :      4.44s CPU      3.92s WALL (       2 calls)
     stress       :     13.38s CPU     12.32s WALL (       2 calls)

     Called by init_run:
     wfcinit      :      6.41s CPU      5.05s WALL (       2 calls)
     potinit      :      6.20s CPU      6.63s WALL (       2 calls)
     hinit0       :      2.61s CPU      2.46s WALL (       2 calls)

     Called by electrons:
     c_bands      :    103.67s CPU     83.87s WALL (      13 calls)
     sum_band     :     15.83s CPU     13.22s WALL (      13 calls)
     v_of_rho     :      2.62s CPU      2.47s WALL (      15 calls)
     newd         :      1.45s CPU      2.84s WALL (      15 calls)
     PAW_pot      :     42.36s CPU     43.00s WALL (      15 calls)
     mix_rho      :      0.17s CPU      0.17s WALL (      13 calls)

     Called by c_bands:
     init_us_2    :      2.55s CPU      2.13s WALL (     640 calls)
     cegterg      :     92.80s CPU     74.83s WALL (     260 calls)

     Called by sum_band:
     sum_band:bec :      0.03s CPU      0.02s WALL (     260 calls)
     addusdens    :      3.52s CPU      3.41s WALL (      13 calls)

     Called by *egterg:
     h_psi        :     74.08s CPU     59.78s WALL (    1351 calls)
     s_psi        :      7.77s CPU      4.47s WALL (    1351 calls)
     g_psi        :      0.56s CPU      0.32s WALL (    1051 calls)
     cdiaghg      :      4.45s CPU      6.62s WALL (    1311 calls)

     Called by h_psi:
     h_psi:pot    :     73.86s CPU     59.54s WALL (    1351 calls)
     h_psi:calbec :      7.78s CPU      4.96s WALL (    1351 calls)
     vloc_psi     :     58.31s CPU     49.76s WALL (    1351 calls)
     add_vuspsi   :      7.70s CPU      4.79s WALL (    1351 calls)

     General routines
     calbec       :     11.05s CPU      6.84s WALL (    1811 calls)
     fft          :      0.88s CPU      0.71s WALL (     399 calls)
     ffts         :      0.08s CPU      0.06s WALL (      26 calls)
     fftw         :     61.27s CPU     51.06s WALL (   41148 calls)

     Parallel routines
     fft_scatt_xy :      7.34s CPU      6.25s WALL (   41573 calls)
     fft_scatt_yz :      7.98s CPU      6.96s WALL (   41573 calls)

     PWSCF        :   3m14.59s CPU   2m51.22s WALL


   This run was terminated on:  11:10: 8   7Nov2020            

=------------------------------------------------------------------------------=
   JOB DONE.
=------------------------------------------------------------------------------=
