--------------------------------------------------------------------------
WARNING: Linux kernel CMA support was requested via the
btl_vader_single_copy_mechanism MCA variable, but CMA support is
not available due to restrictive ptrace settings.

The vader shared memory BTL will fall back on another single-copy
mechanism if one is available. This may result in lower performance.

  Local host: DESKTOP-12SE80T
--------------------------------------------------------------------------

     Program PWSCF v.6.4.1 starts on  7Nov2020 at 13:32: 2 

     This program is part of the open-source Quantum ESPRESSO suite
     for quantum simulation of materials; please cite
         "P. Giannozzi et al., J. Phys.:Condens. Matter 21 395502 (2009);
         "P. Giannozzi et al., J. Phys.:Condens. Matter 29 465901 (2017);
          URL http://www.quantum-espresso.org", 
     in publications or presentations arising from this work. More details at
     http://www.quantum-espresso.org/quote

     Parallel version (MPI), running on     2 processors

     MPI processes distributed on     1 nodes
     R & G space division:  proc/nbgrp/npool/nimage =       2
     Waiting for input...
     Reading input from standard input

     Current dimensions of program PWSCF are:
     Max number of different atomic species (ntypx) = 10
     Max number of k-points (npk) =  40000
     Max angular momentum in pseudopotentials (lmaxx) =  3

     Subspace diagonalization in iterative solution of the eigenvalue problem:
     a serial algorithm will be used

     Found symmetry operation: I + ( -0.3333  0.3333  0.3333)
     This is a supercell, fractional translations are disabled
     Message from routine setup:
     DEPRECATED: symmetry with ibrav=0, use correct ibrav instead

     Parallelization info
     --------------------
     sticks:   dense  smooth     PW     G-vecs:    dense   smooth      PW
     Min         960     513    150                87151    33583    5406
     Max         961     514    151                87154    33590    5411
     Sum        1921    1027    301               174305    67173   10817



     bravais-lattice index     =            0
     lattice parameter (alat)  =       9.2596  a.u.
     unit-cell volume          =    1761.1399 (a.u.)^3
     number of atoms/cell      =           36
     number of atomic types    =            1
     number of electrons       =       108.00
     number of Kohn-Sham states=           65
     kinetic-energy cutoff     =      43.0000  Ry
     charge density cutoff     =     325.0000  Ry
     convergence threshold     =      2.6E-03
     mixing beta               =       0.7000
     number of iterations used =            8  plain     mixing
     Exchange-correlation      = SLA PW PBX PBC ( 1  4  3  4 0 0)
     nstep                     =          100


     celldm(1)=   9.259620  celldm(2)=   0.000000  celldm(3)=   0.000000
     celldm(4)=   0.000000  celldm(5)=   0.000000  celldm(6)=   0.000000

     crystal axes: (cart. coord. in units of alat)
               a(1) = (   1.000000   0.000000   0.000000 )  
               a(2) = (  -0.500000   0.866025   0.000000 )  
               a(3) = (   0.000000   0.000000   2.561437 )  

     reciprocal axes: (cart. coord. in units 2 pi/alat)
               b(1) = (  1.000000  0.577350 -0.000000 )  
               b(2) = (  0.000000  1.154701  0.000000 )  
               b(3) = (  0.000000 -0.000000  0.390406 )  


     PseudoPot. # 1 for B  read from file:
     ./potentials/B.pbe-n-kjpaw_psl.1.0.0.UPF
     MD5 check sum: 8c825a5969375aca5c2c6ad5945b3059
     Pseudo is Projector augmented-wave + core cor, Zval =  3.0
     Generated using "atomic" code by A. Dal Corso v.6.3
     Shape of augmentation charge: PSQ
     Using radial grid of 1059 points,  4 beta functions with: 
                l(1) =   0
                l(2) =   0
                l(3) =   1
                l(4) =   1
     Q(r) pseudized with 0 coefficients 


     atomic species   valence    mass     pseudopotential
        B              3.00    10.81350     B ( 1.00)

     Starting magnetic structure 
     atomic species   magnetization
        B            1.000

     12 Sym. Ops., with inversion, found



   Cartesian axes

     site n.     atom                  positions (alat units)
         1           B   tau(   1) = (   0.3218630   0.1858277   0.5760245  )
         2           B   tau(   2) = (   0.5000000   0.4943700   0.5760245  )
         3           B   tau(   3) = (   0.6781370   0.1858277   0.5760245  )
         4           B   tau(   4) = (   0.8218630   0.1028474   0.2777879  )
         5           B   tau(   5) = (   0.1781370   0.1028474   0.2777879  )
         6           B   tau(   6) = (   0.5000000   0.6603305   0.2777879  )
         7           B   tau(   7) = (   0.2046640   0.6955131   0.0620875  )
         8           B   tau(   8) = (   0.0000000   0.3410246   0.0620875  )
         9           B   tau(   9) = (  -0.2046640   0.6955131   0.0620875  )
        10           B   tau(  10) = (   0.2046640   0.4591875   0.7917248  )
        11           B   tau(  11) = (  -0.2046640   0.4591875   0.7917248  )
        12           B   tau(  12) = (   0.0000000   0.8136759   0.7917248  )
        13           B   tau(  13) = (  -0.1781370   0.4745028   1.4298369  )
        14           B   tau(  14) = (  -0.0000000   0.7830452   1.4298369  )
        15           B   tau(  15) = (   0.1781370   0.4745028   1.4298369  )
        16           B   tau(  16) = (   0.3218630   0.3915226   1.1316002  )
        17           B   tau(  17) = (   0.6781370   0.3915226   1.1316002  )
        18           B   tau(  18) = (   0.5000000   0.0829802   1.1316002  )
        19           B   tau(  19) = (   0.2046640   0.1181628   0.9158999  )
        20           B   tau(  20) = (   0.5000000   0.6296998   0.9158999  )
        21           B   tau(  21) = (   0.7953360   0.1181628   0.9158999  )
        22           B   tau(  22) = (  -0.2953360   0.7478626   1.6455372  )
        23           B   tau(  23) = (   0.2953360   0.7478626   1.6455372  )
        24           B   tau(  24) = (   0.0000000   0.2363256   1.6455372  )
        25           B   tau(  25) = (   0.3218630   0.7631780   2.2836492  )
        26           B   tau(  26) = (   0.0000000   0.2056949   2.2836492  )
        27           B   tau(  27) = (  -0.3218630   0.7631780   2.2836492  )
        28           B   tau(  28) = (  -0.1781370   0.6801977   1.9854126  )
        29           B   tau(  29) = (   0.1781370   0.6801977   1.9854126  )
        30           B   tau(  30) = (  -0.0000000   0.3716554   1.9854126  )
        31           B   tau(  31) = (   0.7046640   0.4068380   1.7697123  )
        32           B   tau(  32) = (   0.5000000   0.0523495   1.7697123  )
        33           B   tau(  33) = (   0.2953360   0.4068380   1.7697123  )
        34           B   tau(  34) = (   0.7046640   0.1705123   2.4993496  )
        35           B   tau(  35) = (   0.2953360   0.1705123   2.4993496  )
        36           B   tau(  36) = (   0.5000000   0.5250008   2.4993496  )

     number of k points=    21  Methfessel-Paxton smearing, width (Ry)=  0.0200
                       cart. coord. in units 2pi/alat
        k(    1) = (   0.0833333   0.1443376   0.0976015), wk =   0.0555556
        k(    2) = (   0.0833333   0.3367877   0.0976015), wk =   0.0555556
        k(    3) = (   0.0833333   0.5292377   0.0976015), wk =   0.0555556
        k(    4) = (   0.0833333  -0.4330127   0.0976015), wk =   0.0555556
        k(    5) = (   0.0833333  -0.2405626   0.0976015), wk =   0.0555556
        k(    6) = (   0.0833333  -0.0481125   0.0976015), wk =   0.0277778
        k(    7) = (   0.2500000   0.4330127   0.0976015), wk =   0.0555556
        k(    8) = (   0.2500000   0.6254628   0.0976015), wk =   0.0555556
        k(    9) = (   0.2500000  -0.3367877   0.0976015), wk =   0.0555556
        k(   10) = (   0.2500000  -0.1443376   0.0976015), wk =   0.0277778
        k(   11) = (   0.4166667   0.7216878   0.0976015), wk =   0.0555556
        k(   12) = (   0.4166667  -0.2405626   0.0976015), wk =   0.0277778
        k(   13) = (  -0.0833333   0.3367877  -0.0976015), wk =   0.0555556
        k(   14) = (  -0.0833333   0.5292377  -0.0976015), wk =   0.0555556
        k(   15) = (  -0.0833333  -0.4330127  -0.0976015), wk =   0.0555556
        k(   16) = (  -0.0833333  -0.2405626  -0.0976015), wk =   0.0555556
        k(   17) = (  -0.0833333  -0.0481125  -0.0976015), wk =   0.0277778
        k(   18) = (  -0.2500000   0.6254628  -0.0976015), wk =   0.0555556
        k(   19) = (  -0.2500000  -0.3367877  -0.0976015), wk =   0.0555556
        k(   20) = (  -0.2500000  -0.1443376  -0.0976015), wk =   0.0277778
        k(   21) = (  -0.4166667  -0.2405626  -0.0976015), wk =   0.0277778

     Dense  grid:   174305 G-vectors     FFT dimensions: (  54,  54, 144)

     Smooth grid:    67173 G-vectors     FFT dimensions: (  40,  40, 100)

     Estimated max dynamical RAM per process >     482.85 MB

     Estimated total dynamical RAM >     965.70 MB
     Generating pointlists ...
     new r_m :   0.1408 (alat units)  1.3036 (a.u.) for type    1

     Check: negative core charge=   -0.000001

     Initial potential from superposition of free atoms

     starting charge  107.98983, renormalised to  108.00000

     negative rho (up, down):  0.000E+00 2.299E-01
     Starting wfcs are  144 randomized atomic wfcs
     Checking if some PAW data can be deallocated... 

     total cpu time spent up to now is       46.4 secs

     Self-consistent Calculation

     iteration #  1     ecut=    43.00 Ry     beta= 0.70
     Davidson diagonalization with overlap
     ethr =  1.00E-02,  avg # of iterations =  2.0

     total cpu time spent up to now is      117.4 secs

     total energy              =    -408.17282922 Ry
     Harris-Foulkes estimate   =    -398.06033367 Ry
     estimated scf accuracy    <       4.00592555 Ry

     total magnetization       =    16.89 Bohr mag/cell
     absolute magnetization    =    16.90 Bohr mag/cell

     iteration #  2     ecut=    43.00 Ry     beta= 0.70
     Davidson diagonalization with overlap
     ethr =  3.71E-03,  avg # of iterations =  2.0

     total cpu time spent up to now is      188.6 secs

     total energy              =    -412.16616636 Ry
     Harris-Foulkes estimate   =    -410.66496203 Ry
     estimated scf accuracy    <       0.76984901 Ry

     total magnetization       =     0.52 Bohr mag/cell
     absolute magnetization    =     1.22 Bohr mag/cell

     iteration #  3     ecut=    43.00 Ry     beta= 0.70
     Davidson diagonalization with overlap
     ethr =  7.13E-04,  avg # of iterations =  2.4

     total cpu time spent up to now is      256.0 secs

     total energy              =    -412.47665061 Ry
     Harris-Foulkes estimate   =    -412.34749825 Ry
     estimated scf accuracy    <       0.16508825 Ry

     total magnetization       =     0.00 Bohr mag/cell
     absolute magnetization    =     0.45 Bohr mag/cell

     iteration #  4     ecut=    43.00 Ry     beta= 0.70
     Davidson diagonalization with overlap
     ethr =  1.53E-04,  avg # of iterations =  4.2

     total cpu time spent up to now is      329.9 secs

     total energy              =    -412.50340122 Ry
     Harris-Foulkes estimate   =    -412.52032015 Ry
     estimated scf accuracy    <       0.03170626 Ry

     total magnetization       =     0.04 Bohr mag/cell
     absolute magnetization    =     0.18 Bohr mag/cell

     iteration #  5     ecut=    43.00 Ry     beta= 0.70
     Davidson diagonalization with overlap
     ethr =  2.94E-05,  avg # of iterations =  6.8

     total cpu time spent up to now is      422.3 secs

     total energy              =    -412.50492189 Ry
     Harris-Foulkes estimate   =    -412.52887849 Ry
     estimated scf accuracy    <       0.08105659 Ry

     total magnetization       =     0.01 Bohr mag/cell
     absolute magnetization    =     0.08 Bohr mag/cell

     iteration #  6     ecut=    43.00 Ry     beta= 0.70
     Davidson diagonalization with overlap
     ethr =  2.94E-05,  avg # of iterations =  6.9

     Magnetic moment per site:
     atom:    1    charge:    1.2875    magn:   -0.0006    constr:    0.0000
     atom:    2    charge:    1.2875    magn:   -0.0006    constr:    0.0000
     atom:    3    charge:    1.2875    magn:   -0.0006    constr:    0.0000
     atom:    4    charge:    1.2867    magn:   -0.0007    constr:    0.0000
     atom:    5    charge:    1.2867    magn:   -0.0007    constr:    0.0000
     atom:    6    charge:    1.2867    magn:   -0.0007    constr:    0.0000
     atom:    7    charge:    1.2004    magn:    0.0002    constr:    0.0000
     atom:    8    charge:    1.2004    magn:    0.0002    constr:    0.0000
     atom:    9    charge:    1.2004    magn:    0.0002    constr:    0.0000
     atom:   10    charge:    1.2014    magn:    0.0001    constr:    0.0000
     atom:   11    charge:    1.2014    magn:    0.0001    constr:    0.0000
     atom:   12    charge:    1.2014    magn:    0.0001    constr:    0.0000
     atom:   13    charge:    1.2836    magn:   -0.0006    constr:    0.0000
     atom:   14    charge:    1.2836    magn:   -0.0006    constr:    0.0000
     atom:   15    charge:    1.2836    magn:   -0.0006    constr:    0.0000
     atom:   16    charge:    1.2836    magn:   -0.0006    constr:    0.0000
     atom:   17    charge:    1.2836    magn:   -0.0006    constr:    0.0000
     atom:   18    charge:    1.2836    magn:   -0.0006    constr:    0.0000
     atom:   19    charge:    1.2001    magn:    0.0002    constr:    0.0000
     atom:   20    charge:    1.2001    magn:    0.0002    constr:    0.0000
     atom:   21    charge:    1.2001    magn:    0.0002    constr:    0.0000
     atom:   22    charge:    1.2001    magn:    0.0002    constr:    0.0000
     atom:   23    charge:    1.2001    magn:    0.0002    constr:    0.0000
     atom:   24    charge:    1.2001    magn:    0.0002    constr:    0.0000
     atom:   25    charge:    1.2867    magn:   -0.0007    constr:    0.0000
     atom:   26    charge:    1.2867    magn:   -0.0007    constr:    0.0000
     atom:   27    charge:    1.2867    magn:   -0.0007    constr:    0.0000
     atom:   28    charge:    1.2875    magn:   -0.0006    constr:    0.0000
     atom:   29    charge:    1.2875    magn:   -0.0006    constr:    0.0000
     atom:   30    charge:    1.2875    magn:   -0.0006    constr:    0.0000
     atom:   31    charge:    1.2014    magn:    0.0001    constr:    0.0000
     atom:   32    charge:    1.2014    magn:    0.0001    constr:    0.0000
     atom:   33    charge:    1.2014    magn:    0.0001    constr:    0.0000
     atom:   34    charge:    1.2004    magn:    0.0002    constr:    0.0000
     atom:   35    charge:    1.2004    magn:    0.0002    constr:    0.0000
     atom:   36    charge:    1.2004    magn:    0.0002    constr:    0.0000

     total cpu time spent up to now is      504.8 secs

     End of self-consistent calculation

 ------ SPIN UP ------------


          k = 0.0833 0.1443 0.0976 (  8408 PWs)   bands (ev):

    -7.0092  -6.8024  -6.5416  -3.4052  -2.6593  -2.2623  -2.1219  -2.0625
    -1.6330  -1.5952  -1.5156  -1.4501  -0.0607   0.0669   0.2562   0.2813
     0.4292   0.4814   0.9862   1.0284   1.0907   1.4064   1.7024   2.0185
     2.4508   2.5842   2.5968   3.1255   3.1354   3.2345   3.2586   3.3952
     3.8618   4.0795   4.6702   4.7220   5.2205   5.2692   5.4021   5.8867
     6.0701   6.1878   6.3894   6.5643   6.6897   7.0401   7.1466   7.3663
     7.5533   7.8307   7.8970   8.1792   8.2713   8.2827  10.7683  11.2314
    11.6572  11.9118  12.3300  12.3464  12.5712  12.8831  13.0998  13.3762
    13.4918

          k = 0.0833 0.3368 0.0976 (  8389 PWs)   bands (ev):

    -6.6726  -6.4980  -6.2605  -3.4900  -3.4316  -3.1086  -2.9517  -2.3086
    -2.2614  -2.1507  -1.8923  -1.6820  -0.4077  -0.1653   0.0454   0.9248
     0.9883   1.1037   1.4351   1.5135   1.5252   1.7078   1.9565   2.4974
     2.5463   2.6260   2.8816   3.2318   3.6048   3.9675   4.2461   4.4763
     4.5466   4.6982   4.8172   5.0509   5.1828   5.2164   5.8162   5.9481
     6.2202   6.2749   6.2924   6.3570   6.5140   6.5576   6.9719   6.9891
     7.1603   7.1784   7.3171   7.3683   7.8399   8.0145  10.9246  11.0960
    11.2650  11.9561  12.0435  12.4467  12.4760  12.9150  12.9301  13.0940
    13.1383

          k = 0.0833 0.5292 0.0976 (  8383 PWs)   bands (ev):

    -6.2283  -6.2056  -6.0185  -4.2075  -4.0241  -3.9479  -2.6113  -2.4827
    -2.4370  -2.1944  -2.0851  -1.8544  -0.6556  -0.3883  -0.1639   0.2508
     0.7646   1.0716   1.5465   1.6942   2.4664   2.8234   2.9706   3.0355
     3.1417   3.2074   3.7462   3.7505   3.8168   3.8429   3.9431   4.5679
     4.6379   4.6698   4.7242   5.1556   5.2297   5.7341   5.7653   5.8219
     5.9171   6.1028   6.1160   6.3042   6.4073   6.5324   6.5540   7.0405
     7.1540   7.1644   7.2054   7.2967   7.5157   8.2231  10.5386  10.7079
    10.8245  11.6138  11.9645  12.1565  12.1999  12.5653  12.5933  12.6592
    13.6247

          k = 0.0833-0.4330 0.0976 (  8379 PWs)   bands (ev):

    -6.4580  -6.2699  -6.1341  -3.8760  -3.8133  -3.6677  -2.8445  -2.4505
    -2.2421  -2.2374  -2.0921  -1.5902  -0.5969  -0.3460  -0.0962   0.1779
     0.7723   1.5062   1.6137   1.9285   2.1978   2.2129   2.4260   2.6162
     2.8833   2.8964   3.3973   3.4315   3.5277   3.6588   3.7831   5.0035
     5.1343   5.1720   5.2003   5.4018   5.4583   5.4924   5.5065   5.6874
     5.7395   5.9969   6.0106   6.3456   6.4284   6.5657   6.8610   6.9314
     6.9370   6.9678   7.1329   7.3010   7.5448   8.3359  10.5718  10.9332
    11.0100  11.9998  12.1818  12.3609  12.4072  12.5184  12.8615  13.2004
    13.2282

          k = 0.0833-0.2406 0.0976 (  8384 PWs)   bands (ev):

    -6.8711  -6.6692  -6.4234  -3.2752  -2.8766  -2.8170  -2.6960  -2.3314
    -1.9272  -1.8842  -1.7331  -1.5329  -0.1750  -0.0379   0.2529   0.6147
     0.6708   0.9021   1.1001   1.1681   1.6481   1.7508   1.8978   2.1354
     2.1997   2.3707   2.8284   2.9315   3.4095   3.5840   3.8311   3.8737
     3.9007   4.1627   4.9561   4.9715   5.3140   5.3921   5.7611   5.9204
     6.0332   6.2522   6.4746   6.6182   6.7734   6.8365   6.8937   7.2441
     7.2447   7.2621   7.6539   7.6905   7.8228   8.3067  11.0548  11.3047
    11.6250  11.8781  12.1054  12.2128  12.4886  12.8746  13.0079  13.1100
    13.4142

          k = 0.0833-0.0481 0.0976 (  8416 PWs)   bands (ev):

    -7.0806  -6.8710  -6.6049  -3.4720  -2.6731  -1.7671  -1.7399  -1.6558
    -1.4850  -1.4638  -1.3220  -1.2297  -0.3246  -0.1430   0.0516   0.2873
     0.5265   0.5266   0.5400   0.5484   0.7676   1.1699   2.1933   2.2361
     2.3833   2.7096   2.7452   2.7642   2.7881   2.8081   3.1530   3.3456
     3.7894   3.8953   4.5668   4.7422   4.9411   5.2467   5.5163   5.8153
     5.9319   6.1422   6.3663   6.5211   6.8452   7.0253   7.2018   7.2994
     7.5635   7.9187   8.0984   8.4658   8.5924   8.7304  10.6114  10.9875
    11.6303  11.8902  12.1941  12.6016  13.0826  13.1248  13.1372  13.5856
    13.6995

          k = 0.2500 0.4330 0.0976 (  8384 PWs)   bands (ev):

    -6.2979  -6.1693  -6.0302  -3.8178  -3.7557  -3.7024  -3.2307  -2.9946
    -2.9684  -2.5006  -2.0790  -1.7746   0.3000   0.7678   0.9182   0.9747
     0.9848   1.0837   1.2052   1.2074   1.4244   1.5145   2.0922   2.2020
     2.6597   3.4188   3.5001   3.6798   3.9064   3.9232   4.9009   4.9809
     5.0069   5.0442   5.0677   5.1795   5.3472   5.5468   5.6208   5.6787
     5.7535   5.8574   6.2129   6.4670   6.6254   6.8742   6.9015   6.9272
     7.0753   7.1112   7.2134   7.3827   7.7124   7.9327  10.6965  10.7345
    10.8341  11.7757  11.9059  11.9636  12.1156  12.2122  12.5145  12.9380
    13.3317

          k = 0.2500 0.6255 0.0976 (  8376 PWs)   bands (ev):

    -6.1371  -6.0334  -6.0085  -3.9293  -3.8320  -3.8147  -3.3892  -3.3412
    -3.1369  -2.2606  -2.1353  -1.8601   0.2473   0.6741   0.7720   0.9093
     1.1095   1.2968   1.3430   1.6180   1.9083   2.0277   2.0413   2.2430
     2.6358   2.9406   3.0566   3.3001   3.5047   3.8148   4.8906   5.1205
     5.3878   5.4055   5.4291   5.4468   5.5047   5.6643   5.7849   5.8636
     5.9134   5.9262   6.4062   6.4147   6.4746   6.5623   6.7624   6.8977
     6.9414   7.2398   7.2803   7.4661   7.4888   7.9049  10.7550  10.7789
    10.7904  11.4345  11.5322  11.7416  12.1019  12.1607  12.2040  12.9646
    13.0183

          k = 0.2500-0.3368 0.0976 (  8389 PWs)   bands (ev):

    -6.4950  -6.3404  -6.1346  -3.6993  -3.6125  -3.4133  -2.9616  -2.6263
    -2.6008  -2.5256  -2.1112  -1.7117   0.1969   0.3915   0.5654   0.6477
     0.9212   1.0226   1.1837   1.3317   1.3435   1.5514   2.0671   2.4948
     2.6962   3.3746   3.3939   3.6098   3.6538   3.9020   4.5172   4.8828
     4.9750   5.0241   5.0500   5.2772   5.2911   5.3267   5.4708   5.4890
     5.5101   5.9196   6.3389   6.3747   6.6059   6.7521   6.8641   6.9934
     7.1188   7.1813   7.2177   7.3824   7.9096   7.9393  10.7828  10.9224
    11.1048  11.8640  11.9016  12.2483  12.2662  12.5412  12.8899  12.9582
    13.3491

          k = 0.2500-0.1443 0.0976 (  8385 PWs)   bands (ev):

    -6.8019  -6.6135  -6.3636  -3.3197  -3.2121  -2.8970  -2.7944  -2.3771
    -1.9433  -1.7779  -1.7049  -1.5678  -0.6345  -0.3655  -0.1977   1.0423
     1.1489   1.3049   1.5210   1.5266   1.6592   1.7765   1.8156   1.8719
     1.9982   2.0682   2.6572   3.4642   3.5540   3.9253   4.1440   4.1688
     4.1973   4.2662   4.4827   5.1069   5.1444   5.3433   5.4820   5.7718
     6.2605   6.2902   6.5585   6.7358   6.8012   6.9130   7.0063   7.0814
     7.1951   7.2270   7.3322   7.6754   7.7392   7.9552  11.0992  11.1507
    11.2101  12.0647  12.2315  12.3100  12.7670  12.9415  12.9622  13.0173
    13.1972

          k = 0.4167 0.7217 0.0976 (  8369 PWs)   bands (ev):

    -6.1700  -6.0977  -6.0080  -4.1290  -3.9565  -3.9378  -3.0450  -2.9617
    -2.6906  -2.3123  -2.1832  -1.8122  -0.0163   0.2676   0.2792   0.5034
     0.6650   1.1180   1.4349   1.4887   2.5146   2.5858   2.6917   2.7773
     2.7874   2.8780   3.3207   3.4890   3.5141   3.9960   4.2621   5.0071
     5.0203   5.0286   5.1165   5.2026   5.3212   5.8267   5.8454   5.8581
     5.9802   6.1354   6.2380   6.2867   6.4627   6.5792   6.7317   6.9228
     6.9499   7.1864   7.2481   7.3805   7.4986   8.0961  10.6707  10.6922
    10.7520  11.4169  11.7436  12.0330  12.2735  12.3314  12.3649  12.8260
    13.2503

          k = 0.4167-0.2406 0.0976 (  8385 PWs)   bands (ev):

    -6.3431  -6.2688  -6.0553  -4.1435  -3.9741  -3.8166  -2.6498  -2.2351
    -2.1071  -2.0557  -2.0125  -1.8304  -0.9736  -0.6696  -0.4750   0.3898
     0.9046   0.9624   1.5964   1.8081   2.3416   2.9669   3.0523   3.0933
     3.1871   3.3821   3.4085   3.4438   3.4591   3.6909   3.7127   4.4076
     4.8744   5.0421   5.0670   5.2064   5.2300   5.5333   5.7121   5.7574
     5.7691   6.0255   6.0609   6.3339   6.3514   6.4482   6.4922   7.0892
     7.1175   7.1576   7.2104   7.3528   7.5171   8.2423  10.5135  10.8215
    10.8685  11.8670  12.0488  12.1472  12.4273  12.6385  12.6662  12.8091
    13.6753

          k =-0.0833 0.3368-0.0976 (  8389 PWs)   bands (ev):

    -6.6782  -6.4829  -6.2714  -3.4516  -3.3040  -3.2405  -3.0718  -2.2955
    -2.2376  -2.1037  -1.9393  -1.5417  -0.4260  -0.2142   0.0459   0.5142
     0.8282   1.2753   1.5213   1.6915   1.7025   1.8581   2.3435   2.3546
     2.5546   2.6354   2.8041   3.0847   3.3146   3.5420   3.8840   4.5850
     4.6123   4.7872   5.2491   5.2986   5.3905   5.4311   5.8542   5.9598
     6.1354   6.2178   6.2404   6.3432   6.4763   6.5793   6.7735   6.8022
     7.0004   7.0699   7.3501   7.5522   7.5529   8.3404  10.8556  11.1518
    11.3556  11.9586  12.1397  12.3688  12.6210  12.8478  12.8497  13.1721
    13.2296

          k =-0.0833 0.5292-0.0976 (  8383 PWs)   bands (ev):

    -6.2719  -6.1010  -6.0825  -4.1517  -4.0604  -3.9649  -2.6249  -2.5585
    -2.2991  -2.2464  -2.1755  -1.7006  -0.6694  -0.4055  -0.1656   0.0809
     0.7349   1.3285   1.4761   1.8340   2.5265   2.6719   2.9122   3.0427
     3.1340   3.2328   3.5609   3.6586   3.8009   3.8286   4.0065   4.6033
     4.6863   4.7384   4.7934   5.2246   5.3196   5.6472   5.7396   5.7818
     5.9528   6.0899   6.1173   6.2317   6.4786   6.6496   6.8350   6.8391
     6.8860   7.1053   7.2228   7.3000   7.4963   8.2931  10.5426  10.6591
    10.8871  11.6844  11.9494  12.1501  12.2058  12.4658  12.6346  12.8452
    13.4637

          k =-0.0833-0.4330-0.0976 (  8379 PWs)   bands (ev):

    -6.4399  -6.3178  -6.1007  -3.9558  -3.8083  -3.5976  -2.7724  -2.4295
    -2.3462  -2.1997  -1.9674  -1.8599  -0.5678  -0.3037  -0.0918   0.6281
     0.8524   0.9436   1.5907   1.6909   2.1561   2.2402   2.2941   2.6468
     3.0670   3.1968   3.3661   3.5281   3.5524   3.9289   3.9906   4.5248
     4.9981   5.1121   5.1460   5.3175   5.3810   5.4639   5.5038   5.5225
     5.8300   5.8573   6.3053   6.4036   6.4830   6.5166   6.6150   7.0295
     7.1511   7.1782   7.2116   7.2679   7.6507   8.1304  10.6161  10.8737
    10.9816  11.8730  12.1443  12.2295  12.5484  12.6279  12.8293  12.8384
    13.4476

          k =-0.0833-0.2406-0.0976 (  8384 PWs)   bands (ev):

    -6.8699  -6.6726  -6.4209  -3.3031  -2.9304  -2.7542  -2.5659  -2.4061
    -1.9893  -1.8695  -1.7075  -1.5832  -0.1904   0.0297   0.2197   0.5843
     0.7475   1.0086   1.1203   1.3113   1.5977   1.6190   1.8240   1.9384
     2.1135   2.3757   2.5790   3.2815   3.4814   3.7827   3.9074   3.9388
     3.9679   4.3518   4.6389   4.8478   5.1925   5.2585   5.6040   5.8469
     6.1090   6.1847   6.5627   6.6628   6.8121   6.9684   7.1172   7.1841
     7.2447   7.3952   7.6217   7.6486   7.9351   8.0619  11.1089  11.3447
    11.3973  12.0441  12.0699  12.0883  12.5687  12.8635  12.9824  13.0970
    13.3745

          k =-0.0833-0.0481-0.0976 (  8416 PWs)   bands (ev):

    -7.0808  -6.8708  -6.6051  -3.4708  -2.6746  -1.8284  -1.7159  -1.5793
    -1.5195  -1.4520  -1.3575  -1.2028  -0.3333  -0.1578   0.1022   0.3654
     0.4029   0.4351   0.5225   0.6564   0.7475   1.2100   1.9609   2.3954
     2.5415   2.6424   2.7336   2.8158   2.9214   2.9768   2.9938   3.0953
     3.8298   3.8454   4.5724   4.6213   5.0612   5.2551   5.6130   5.8592
     6.0204   6.1494   6.1696   6.7389   6.7628   6.8304   7.1145   7.4421
     7.5211   7.9221   8.1172   8.4959   8.5843   8.7299  10.6078  10.9952
    11.6338  11.9304  12.1353  12.8003  12.8805  12.9764  13.2612  13.5611
    13.7153

          k =-0.2500 0.6255-0.0976 (  8376 PWs)   bands (ev):

    -6.1171  -6.0823  -5.9788  -3.9756  -3.8004  -3.7799  -3.4484  -3.2961
    -3.1418  -2.3018  -2.0029  -1.9627   0.4296   0.4400   0.8429   0.9080
     1.0819   1.3051   1.3611   1.5922   1.9386   1.9649   2.1189   2.2162
     2.6238   2.8404   3.1791   3.2825   3.5928   3.7545   4.9052   5.1549
     5.2735   5.3912   5.4232   5.4569   5.5061   5.6424   5.8141   5.8641
     5.9217   5.9853   6.2468   6.3605   6.6023   6.7237   6.7461   6.8433
     6.9983   7.0971   7.3274   7.3680   7.6832   7.8242  10.7137  10.8059
    10.8204  11.3490  11.5859  11.7564  12.1099  12.1445  12.2170  12.8492
    13.1201

          k =-0.2500-0.3368-0.0976 (  8389 PWs)   bands (ev):

    -6.5008  -6.3251  -6.1454  -3.6527  -3.5448  -3.5350  -2.9936  -2.6820
    -2.5168  -2.4830  -2.1913  -1.6162   0.0878   0.3963   0.4761   0.6234
     0.8728   1.0718   1.3050   1.3541   1.4415   1.5340   2.3371   2.4596
     2.4947   3.2184   3.5238   3.5648   3.6485   3.7042   4.3256   5.0686
     5.0962   5.1006   5.1399   5.2280   5.3256   5.3724   5.4899   5.5520
     5.6978   5.8546   6.2317   6.2506   6.4010   6.8276   6.9475   7.0043
     7.0478   7.1382   7.2040   7.4897   7.6223   8.1657  10.7695  11.0001
    11.0501  11.9850  12.0018  12.0359  12.3285  12.4424  13.0015  13.0250
    13.3209

          k =-0.2500-0.1443-0.0976 (  8385 PWs)   bands (ev):

    -6.8056  -6.6036  -6.3708  -3.2152  -3.1532  -3.0081  -2.9651  -2.3179
    -1.9469  -1.7701  -1.5720  -1.5465  -0.6217  -0.4625  -0.1811   0.7155
     0.8469   1.4880   1.4907   1.5870   1.8145   1.8723   1.9383   2.0061
     2.3217   2.3642   2.5964   3.1218   3.2721   3.3683   3.7557   4.1157
     4.1476   4.3209   5.1843   5.3155   5.3233   5.5497   5.8665   5.9331
     5.9661   6.4086   6.4964   6.5747   6.6128   6.7731   6.8915   6.8972
     7.0830   7.0987   7.5063   7.5601   7.5729   8.3984  11.0168  11.0490
    11.5975  11.8642  12.3587  12.4369  12.8430  12.9365  12.9632  13.0154
    13.1042

          k =-0.4167-0.2406-0.0976 (  8385 PWs)   bands (ev):

    -6.3759  -6.1837  -6.1123  -4.0464  -4.0238  -3.8577  -2.6925  -2.2868
    -2.2369  -2.0515  -1.8329  -1.6601  -0.9899  -0.7238  -0.4744   0.0574
     0.7249   1.5297   1.5945   2.2017   2.3502   2.5313   3.0603   3.0619
     3.2299   3.2708   3.3060   3.3539   3.4740   3.5587   3.5756   4.7954
     4.9094   5.0081   5.2226   5.2880   5.3676   5.4320   5.6411   5.7813
     5.8221   5.9819   6.0116   6.2074   6.5491   6.6664   6.7606   6.8370
     6.9348   6.9524   6.9867   7.3124   7.5570   8.3822  10.4802  10.7774
    10.9865  11.9607  12.1571  12.2347  12.4111  12.4162  12.8081  12.9436
    13.4037

 ------ SPIN DOWN ----------


          k = 0.0833 0.1443 0.0976 (  8408 PWs)   bands (ev):

    -7.0126  -6.8060  -6.5453  -3.4129  -2.6678  -2.2657  -2.1257  -2.0672
    -1.6378  -1.6052  -1.5210  -1.4564  -0.0612   0.0665   0.2562   0.2833
     0.4311   0.4829   0.9866   1.0247   1.0905   1.4032   1.6984   2.0160
     2.4465   2.5788   2.5921   3.1272   3.1349   3.2340   3.2541   3.3896
     3.8551   4.0791   4.6702   4.7198   5.2083   5.2684   5.4010   5.8763
     6.0647   6.1855   6.3832   6.5581   6.6883   7.0306   7.1471   7.3586
     7.5438   7.8204   7.8921   8.1774   8.2645   8.2794  10.7720  11.2372
    11.6616  11.9191  12.3330  12.3503  12.5751  12.8872  13.1039  13.3843
    13.4983

          k = 0.0833 0.3368 0.0976 (  8389 PWs)   bands (ev):

    -6.6768  -6.5025  -6.2653  -3.4912  -3.4350  -3.1101  -2.9577  -2.3174
    -2.2638  -2.1543  -1.8957  -1.6930  -0.4058  -0.1641   0.0476   0.9184
     0.9867   1.0993   1.4349   1.5098   1.5213   1.7068   1.9525   2.4937
     2.5428   2.6231   2.8788   3.2284   3.5994   3.9608   4.2471   4.4769
     4.5442   4.6964   4.8153   5.0416   5.1708   5.2144   5.8061   5.9455
     6.2172   6.2728   6.2914   6.3522   6.5112   6.5575   6.9659   6.9850
     7.1526   7.1767   7.3104   7.3584   7.8279   8.0037  10.9291  11.1034
    11.2735  11.9607  12.0556  12.4524  12.4838  12.9192  12.9341  13.1006
    13.1436

          k = 0.0833 0.5292 0.0976 (  8383 PWs)   bands (ev):

    -6.2337  -6.2122  -6.0249  -4.2062  -4.0234  -3.9470  -2.6159  -2.4873
    -2.4433  -2.1980  -2.0933  -1.8643  -0.6541  -0.3863  -0.1618   0.2493
     0.7599   1.0704   1.5430   1.6867   2.4604   2.8199   2.9642   3.0316
     3.1370   3.2021   3.7393   3.7500   3.8187   3.8453   3.9427   4.5657
     4.6347   4.6680   4.7209   5.1461   5.2177   5.7285   5.7586   5.8151
     5.9110   6.1000   6.1164   6.2988   6.4021   6.5255   6.5496   7.0357
     7.1493   7.1610   7.1986   7.2945   7.5053   8.2104  10.5435  10.7147
    10.8296  11.6228  11.9778  12.1673  12.2131  12.5721  12.6011  12.6674
    13.6325

          k = 0.0833-0.4330 0.0976 (  8379 PWs)   bands (ev):

    -6.4631  -6.2752  -6.1399  -3.8749  -3.8137  -3.6687  -2.8531  -2.4525
    -2.2510  -2.2406  -2.0952  -1.6021  -0.5959  -0.3439  -0.0945   0.1773
     0.7677   1.5033   1.6097   1.9230   2.1956   2.2108   2.4231   2.6130
     2.8788   2.8904   3.3941   3.4272   3.5232   3.6529   3.7845   5.0020
     5.1315   5.1653   5.1977   5.3993   5.4559   5.4882   5.5032   5.6820
     5.7324   5.9883   6.0106   6.3377   6.4255   6.5589   6.8527   6.9246
     6.9319   6.9640   7.1263   7.2962   7.5409   8.3229  10.5796  10.9370
    11.0159  12.0114  12.1916  12.3680  12.4167  12.5277  12.8703  13.2075
    13.2344

          k = 0.0833-0.2406 0.0976 (  8384 PWs)   bands (ev):

    -6.8748  -6.6731  -6.4275  -3.2831  -2.8785  -2.8227  -2.6988  -2.3375
    -1.9302  -1.8879  -1.7381  -1.5434  -0.1737  -0.0365   0.2546   0.6145
     0.6667   0.8992   1.0992   1.1654   1.6449   1.7485   1.8962   2.1327
     2.1962   2.3681   2.8212   2.9274   3.4046   3.5776   3.8316   3.8725
     3.8991   4.1635   4.9543   4.9688   5.3036   5.3885   5.7592   5.9135
     6.0312   6.2444   6.4700   6.6143   6.7671   6.8270   6.8876   7.2396
     7.2420   7.2605   7.6530   7.6815   7.8148   8.2944  11.0626  11.3110
    11.6331  11.8816  12.1084  12.2223  12.4910  12.8796  13.0155  13.1130
    13.4180

          k = 0.0833-0.0481 0.0976 (  8416 PWs)   bands (ev):

    -7.0839  -6.8745  -6.6084  -3.4796  -2.6817  -1.7712  -1.7454  -1.6658
    -1.4916  -1.4702  -1.3290  -1.2375  -0.3263  -0.1444   0.0513   0.2902
     0.5299   0.5319   0.5414   0.5518   0.7713   1.1618   2.1858   2.2330
     2.3788   2.7101   2.7404   2.7618   2.7897   2.8073   3.1462   3.3407
     3.7899   3.8878   4.5648   4.7423   4.9410   5.2347   5.5161   5.8048
     5.9272   6.1414   6.3575   6.5128   6.8465   7.0262   7.1933   7.2891
     7.5580   7.9073   8.0862   8.4641   8.5909   8.7292  10.6123  10.9920
    11.6375  11.8928  12.1970  12.6064  13.0833  13.1308  13.1403  13.5955
    13.7103

          k = 0.2500 0.4330 0.0976 (  8384 PWs)   bands (ev):

    -6.3034  -6.1753  -6.0366  -3.8177  -3.7554  -3.7029  -3.2320  -2.9945
    -2.9692  -2.5082  -2.0891  -1.7860   0.2971   0.7640   0.9126   0.9736
     0.9831   1.0818   1.2050   1.2064   1.4244   1.5156   2.0879   2.1987
     2.6542   3.4136   3.4925   3.6795   3.9060   3.9210   4.8983   4.9799
     4.9991   5.0399   5.0624   5.1727   5.3390   5.5452   5.6159   5.6738
     5.7484   5.8540   6.2052   6.4595   6.6219   6.8716   6.8954   6.9206
     7.0709   7.1068   7.2072   7.3745   7.7024   7.9205  10.7044  10.7409
    10.8406  11.7845  11.9175  11.9717  12.1262  12.2232  12.5251  12.9460
    13.3403

          k = 0.2500 0.6255 0.0976 (  8376 PWs)   bands (ev):

    -6.1433  -6.0399  -6.0156  -3.9283  -3.8313  -3.8143  -3.3895  -3.3409
    -3.1371  -2.2697  -2.1454  -1.8713   0.2449   0.6707   0.7687   0.9086
     1.1082   1.2958   1.3391   1.6138   1.9075   2.0243   2.0401   2.2390
     2.6324   2.9399   3.0512   3.3004   3.5052   3.8126   4.8899   5.1103
     5.3826   5.3992   5.4236   5.4393   5.4957   5.6598   5.7787   5.8572
     5.9083   5.9205   6.4019   6.4105   6.4701   6.5564   6.7554   6.8940
     6.9363   7.2351   7.2762   7.4562   7.4798   7.8932  10.7652  10.7858
    10.7973  11.4432  11.5412  11.7518  12.1133  12.1721  12.2151  12.9752
    13.0286

          k = 0.2500-0.3368 0.0976 (  8389 PWs)   bands (ev):

    -6.4998  -6.3456  -6.1401  -3.6998  -3.6137  -3.4143  -2.9668  -2.6275
    -2.6043  -2.5281  -2.1197  -1.7230   0.1969   0.3903   0.5609   0.6478
     0.9177   1.0217   1.1840   1.3301   1.3392   1.5507   2.0625   2.4907
     2.6916   3.3715   3.3895   3.6064   3.6490   3.8947   4.5176   4.8817
     4.9721   5.0139   5.0448   5.2749   5.2872   5.3179   5.4707   5.4879
     5.5063   5.9167   6.3323   6.3679   6.6032   6.7509   6.8573   6.9874
     7.1131   7.1769   7.2101   7.3753   7.8978   7.9284  10.7883  10.9286
    11.1100  11.8759  11.9114  12.2583  12.2767  12.5490  12.8944  12.9679
    13.3517

          k = 0.2500-0.1443 0.0976 (  8385 PWs)   bands (ev):

    -6.8058  -6.6176  -6.3679  -3.3263  -3.2143  -2.9000  -2.7965  -2.3856
    -1.9476  -1.7827  -1.7162  -1.5731  -0.6309  -0.3628  -0.1937   1.0389
     1.1402   1.2990   1.5155   1.5291   1.6605   1.7734   1.8162   1.8679
     1.9955   2.0636   2.6540   3.4599   3.5487   3.9226   4.1411   4.1668
     4.1968   4.2663   4.4832   5.0941   5.1359   5.3417   5.4799   5.7607
     6.2556   6.2859   6.5577   6.7359   6.7985   6.9123   7.0048   7.0732
     7.1880   7.2182   7.3320   7.6638   7.7280   7.9449  11.1035  11.1605
    11.2187  12.0766  12.2308  12.3129  12.7703  12.9488  12.9676  13.0228
    13.2024

          k = 0.4167 0.7217 0.0976 (  8369 PWs)   bands (ev):

    -6.1762  -6.1043  -6.0147  -4.1277  -3.9548  -3.9378  -3.0453  -2.9639
    -2.6919  -2.3217  -2.1922  -1.8234  -0.0180   0.2682   0.2790   0.5028
     0.6622   1.1153   1.4318   1.4842   2.5098   2.5803   2.6875   2.7738
     2.7818   2.8718   3.3195   3.4911   3.5173   3.9947   4.2627   5.0013
     5.0164   5.0224   5.1111   5.1925   5.3118   5.8213   5.8381   5.8522
     5.9740   6.1265   6.2376   6.2833   6.4579   6.5740   6.7284   6.9181
     6.9426   7.1822   7.2440   7.3751   7.4882   8.0839  10.6784  10.6981
    10.7581  11.4265  11.7554  12.0456  12.2844  12.3396  12.3740  12.8352
    13.2599

          k = 0.4167-0.2406 0.0976 (  8385 PWs)   bands (ev):

    -6.3483  -6.2747  -6.0614  -4.1425  -3.9739  -3.8161  -2.6583  -2.2387
    -2.1177  -2.0597  -2.0231  -1.8346  -0.9702  -0.6664  -0.4711   0.3876
     0.8986   0.9616   1.5928   1.7986   2.3373   2.9614   3.0535   3.0846
     3.1862   3.3754   3.4019   3.4448   3.4570   3.6849   3.7147   4.4094
     4.8730   5.0322   5.0659   5.2056   5.2168   5.5285   5.7071   5.7477
     5.7635   6.0215   6.0631   6.3285   6.3459   6.4439   6.4899   7.0787
     7.1134   7.1525   7.2076   7.3507   7.5063   8.2297  10.5182  10.8286
    10.8736  11.8727  12.0621  12.1596  12.4401  12.6466  12.6724  12.8167
    13.6793

          k =-0.0833 0.3368-0.0976 (  8389 PWs)   bands (ev):

    -6.6825  -6.4874  -6.2763  -3.4522  -3.3054  -3.2433  -3.0800  -2.3030
    -2.2408  -2.1065  -1.9428  -1.5533  -0.4249  -0.2122   0.0476   0.5122
     0.8220   1.2733   1.5198   1.6906   1.7011   1.8533   2.3406   2.3501
     2.5502   2.6334   2.8002   3.0790   3.3087   3.5361   3.8848   4.5843
     4.6096   4.7856   5.2440   5.2944   5.3858   5.4264   5.8463   5.9601
     6.1320   6.2122   6.2386   6.3404   6.4692   6.5717   6.7674   6.7974
     6.9935   7.0665   7.3414   7.5440   7.5508   8.3274  10.8633  11.1601
    11.3588  11.9697  12.1447  12.3783  12.6297  12.8525  12.8556  13.1751
    13.2312

          k =-0.0833 0.5292-0.0976 (  8383 PWs)   bands (ev):

    -6.2777  -6.1070  -6.0891  -4.1505  -4.0590  -3.9647  -2.6323  -2.5608
    -2.3083  -2.2508  -2.1786  -1.7119  -0.6682  -0.4033  -0.1638   0.0804
     0.7306   1.3262   1.4732   1.8273   2.5197   2.6676   2.9059   3.0399
     3.1289   3.2276   3.5543   3.6591   3.8035   3.8274   4.0072   4.5989
     4.6826   4.7355   4.7940   5.2133   5.3116   5.6445   5.7324   5.7748
     5.9468   6.0891   6.1132   6.2216   6.4730   6.6464   6.8287   6.8336
     6.8815   7.1016   7.2195   7.2930   7.4898   8.2801  10.5501  10.6633
    10.8924  11.6947  11.9618  12.1596  12.2192  12.4747  12.6411  12.8533
    13.4720

          k =-0.0833-0.4330-0.0976 (  8379 PWs)   bands (ev):

    -6.4448  -6.3233  -6.1065  -3.9555  -3.8089  -3.5978  -2.7800  -2.4318
    -2.3500  -2.2066  -1.9732  -1.8702  -0.5661  -0.3021  -0.0896   0.6254
     0.8468   0.9430   1.5829   1.6864   2.1557   2.2376   2.2898   2.6446
     3.0609   3.1934   3.3642   3.5236   3.5485   3.9219   3.9924   4.5257
     4.9881   5.1016   5.1438   5.3125   5.3795   5.4604   5.5005   5.5181
     5.8236   5.8557   6.3053   6.3978   6.4775   6.5115   6.6082   7.0258
     7.1440   7.1725   7.2074   7.2646   7.6391   8.1185  10.6211  10.8799
    10.9880  11.8810  12.1548  12.2399  12.5603  12.6345  12.8368  12.8471
    13.4525

          k =-0.0833-0.2406-0.0976 (  8384 PWs)   bands (ev):

    -6.8736  -6.6765  -6.4250  -3.3109  -2.9341  -2.7567  -2.5688  -2.4135
    -1.9924  -1.8741  -1.7116  -1.5937  -0.1887   0.0306   0.2215   0.5826
     0.7464   1.0070   1.1165   1.3076   1.5949   1.6154   1.8224   1.9363
     2.1106   2.3705   2.5761   3.2774   3.4768   3.7830   3.9066   3.9324
     3.9651   4.3515   4.6391   4.8474   5.1802   5.2520   5.6021   5.8362
     6.1046   6.1801   6.5630   6.6607   6.8069   6.9638   7.1108   7.1815
     7.2381   7.3890   7.6198   7.6392   7.9268   8.0502  11.1167  11.3482
    11.4054  12.0562  12.0744  12.0907  12.5718  12.8670  12.9895  13.1004
    13.3780

          k =-0.0833-0.0481-0.0976 (  8416 PWs)   bands (ev):

    -7.0840  -6.8742  -6.6086  -3.4784  -2.6832  -1.8330  -1.7240  -1.5846
    -1.5277  -1.4583  -1.3648  -1.2106  -0.3348  -0.1595   0.1021   0.3686
     0.4056   0.4395   0.5234   0.6610   0.7511   1.2027   1.9551   2.3912
     2.5390   2.6396   2.7359   2.8151   2.9178   2.9724   2.9883   3.0898
     3.8278   3.8404   4.5705   4.6216   5.0609   5.2432   5.6124   5.8510
     6.0204   6.1388   6.1641   6.7303   6.7641   6.8211   7.1154   7.4327
     7.5147   7.9112   8.1063   8.4932   8.5829   8.7287  10.6087  10.9998
    11.6415  11.9339  12.1370  12.8010  12.8859  12.9808  13.2664  13.5714
    13.7248

          k =-0.2500 0.6255-0.0976 (  8376 PWs)   bands (ev):

    -6.1231  -6.0892  -5.9858  -3.9747  -3.7991  -3.7800  -3.4480  -3.2964
    -3.1419  -2.3111  -2.0132  -1.9735   0.4268   0.4372   0.8395   0.9072
     1.0798   1.3033   1.3590   1.5883   1.9377   1.9612   2.1163   2.2131
     2.6197   2.8384   3.1768   3.2836   3.5915   3.7523   4.9044   5.1461
     5.2631   5.3860   5.4163   5.4531   5.4977   5.6380   5.8079   5.8581
     5.9159   5.9819   6.2386   6.3571   6.5971   6.7167   6.7403   6.8397
     6.9943   7.0934   7.3222   7.3601   7.6718   7.8131  10.7224  10.8144
    10.8269  11.3574  11.5967  11.7651  12.1215  12.1556  12.2281  12.8595
    13.1301

          k =-0.2500-0.3368-0.0976 (  8389 PWs)   bands (ev):

    -6.5056  -6.3303  -6.1510  -3.6526  -3.5455  -3.5369  -3.0004  -2.6828
    -2.5193  -2.4848  -2.2005  -1.6280   0.0855   0.3965   0.4761   0.6218
     0.8688   1.0694   1.3024   1.3512   1.4425   1.5332   2.3333   2.4538
     2.4905   3.2134   3.5193   3.5611   3.6429   3.6993   4.3253   5.0661
     5.0911   5.0925   5.1359   5.2263   5.3228   5.3684   5.4873   5.5489
     5.6971   5.8481   6.2248   6.2503   6.3928   6.8191   6.9423   6.9999
     7.0432   7.1342   7.1959   7.4836   7.6136   8.1530  10.7763  11.0050
    11.0556  11.9972  12.0115  12.0469  12.3375  12.4499  13.0107  13.0298
    13.3235

          k =-0.2500-0.1443-0.0976 (  8385 PWs)   bands (ev):

    -6.8095  -6.6077  -6.3751  -3.2215  -3.1563  -3.0101  -2.9695  -2.3249
    -1.9512  -1.7748  -1.5773  -1.5581  -0.6186  -0.4589  -0.1775   0.7125
     0.8393   1.4816   1.4923   1.5869   1.8098   1.8739   1.9360   2.0045
     2.3177   2.3598   2.5925   3.1131   3.2668   3.3632   3.7566   4.1160
     4.1462   4.3203   5.1801   5.3087   5.3191   5.5467   5.8598   5.9311
     5.9677   6.3993   6.4878   6.5664   6.6032   6.7649   6.8885   6.8966
     7.0824   7.0963   7.4965   7.5510   7.5733   8.3856  11.0252  11.0577
    11.6045  11.8683  12.3585  12.4447  12.8483  12.9422  12.9671  13.0235
    13.1098

          k =-0.4167-0.2406-0.0976 (  8385 PWs)   bands (ev):

    -6.3812  -6.1893  -6.1185  -4.0446  -4.0236  -3.8580  -2.7018  -2.2964
    -2.2405  -2.0554  -1.8372  -1.6720  -0.9870  -0.7200  -0.4710   0.0568
     0.7206   1.5271   1.5909   2.1911   2.3458   2.5271   3.0533   3.0616
     3.2313   3.2660   3.2990   3.3518   3.4724   3.5604   3.5670   4.7957
     4.9080   5.0074   5.2217   5.2793   5.3607   5.4288   5.6356   5.7732
     5.8164   5.9819   6.0058   6.1973   6.5428   6.6622   6.7554   6.8315
     6.9305   6.9450   6.9842   7.3072   7.5524   8.3689  10.4880  10.7811
    10.9920  11.9737  12.1629  12.2473  12.4192  12.4293  12.8140  12.9514
    13.4108

     the Fermi energy is    10.4167 ev

!    total energy              =    -412.51574432 Ry
     Harris-Foulkes estimate   =    -412.51691806 Ry
     estimated scf accuracy    <       0.00143279 Ry

     total all-electron energy =     -1789.132247 Ry

     The total energy is the sum of the following terms:

     one-electron contribution =      80.81805123 Ry
     hartree contribution      =      24.94250037 Ry
     xc contribution           =    -107.03077332 Ry
     ewald contribution        =    -223.67280569 Ry
     one-center paw contrib.   =    -187.57518297 Ry
     smearing contrib. (-TS)   =       0.00246606 Ry

     total magnetization       =     0.00 Bohr mag/cell
     absolute magnetization    =     0.06 Bohr mag/cell

     convergence has been achieved in   6 iterations

     Forces acting on atoms (cartesian axes, Ry/au):

     atom    1 type  1   force =    -0.00085982   -0.00049642   -0.00061103
     atom    2 type  1   force =     0.00000000    0.00099284   -0.00061103
     atom    3 type  1   force =     0.00085982   -0.00049642   -0.00061103
     atom    4 type  1   force =    -0.00165436    0.00095515    0.00055914
     atom    5 type  1   force =     0.00165436    0.00095515    0.00055914
     atom    6 type  1   force =     0.00000000   -0.00191029    0.00055914
     atom    7 type  1   force =    -0.00008284   -0.00004783   -0.00063918
     atom    8 type  1   force =    -0.00000000    0.00009565   -0.00063918
     atom    9 type  1   force =     0.00008284   -0.00004783   -0.00063918
     atom   10 type  1   force =    -0.00019967    0.00011528   -0.00042576
     atom   11 type  1   force =     0.00019967    0.00011528   -0.00042576
     atom   12 type  1   force =     0.00000000   -0.00023056   -0.00042576
     atom   13 type  1   force =    -0.00152051   -0.00087786    0.00095741
     atom   14 type  1   force =     0.00000000    0.00175573    0.00095741
     atom   15 type  1   force =     0.00152051   -0.00087786    0.00095741
     atom   16 type  1   force =    -0.00152051    0.00087786   -0.00095741
     atom   17 type  1   force =     0.00152051    0.00087786   -0.00095741
     atom   18 type  1   force =     0.00000000   -0.00175573   -0.00095741
     atom   19 type  1   force =    -0.00035460   -0.00020473   -0.00164707
     atom   20 type  1   force =     0.00000000    0.00040946   -0.00164707
     atom   21 type  1   force =     0.00035460   -0.00020473   -0.00164707
     atom   22 type  1   force =    -0.00035460    0.00020473    0.00164707
     atom   23 type  1   force =     0.00035460    0.00020473    0.00164707
     atom   24 type  1   force =     0.00000000   -0.00040946    0.00164707
     atom   25 type  1   force =    -0.00165436   -0.00095515   -0.00055914
     atom   26 type  1   force =     0.00000000    0.00191029   -0.00055914
     atom   27 type  1   force =     0.00165436   -0.00095515   -0.00055914
     atom   28 type  1   force =    -0.00085982    0.00049642    0.00061103
     atom   29 type  1   force =     0.00085982    0.00049642    0.00061103
     atom   30 type  1   force =    -0.00000000   -0.00099284    0.00061103
     atom   31 type  1   force =    -0.00019967   -0.00011528    0.00042576
     atom   32 type  1   force =     0.00000000    0.00023056    0.00042576
     atom   33 type  1   force =     0.00019967   -0.00011528    0.00042576
     atom   34 type  1   force =    -0.00008284    0.00004783    0.00063918
     atom   35 type  1   force =     0.00008284    0.00004783    0.00063918
     atom   36 type  1   force =     0.00000000   -0.00009565    0.00063918

     Total force =     0.008782     Total SCF correction =     0.085498
     SCF correction compared to forces is large: reduce conv_thr to get better values


     Computing stress (Cartesian axis) and pressure

          total   stress  (Ry/bohr**3)                   (kbar)     P=    1.36
  -0.00001604   0.00000000   0.00000000         -2.36      0.00      0.00
   0.00000000  -0.00001604   0.00000000          0.00     -2.36      0.00
   0.00000000   0.00000000   0.00005987          0.00      0.00      8.81


     BFGS Geometry Optimization

     number of scf cycles    =   1
     number of bfgs steps    =   0

     enthalpy new            =    -412.5157443216 Ry

     new trust radius        =       0.0125625960 bohr
     new conv_thr            =       0.0026000000 Ry

     new unit-cell volume =   1762.36124 a.u.^3 (   261.15499 Ang^3 )
     density =      2.47525 g/cm^3

CELL_PARAMETERS (alat=  9.25962026)
   0.999598888   0.000000000   0.000000000
  -0.499799444   0.865678031   0.000000000
   0.000000000   0.000000000   2.565270955

ATOMIC_POSITIONS (crystal)
B        0.429026860   0.214513425   0.224857568
B        0.785486575   0.570973140   0.224857568
B        0.785486575   0.214513425   0.224857568
B        0.881122890   0.118877110   0.108473575
B        0.237754219   0.118877110   0.108473575
B        0.881122890   0.762245781   0.108473575
B        0.606206742   0.803103366   0.024212381
B        0.196896634   0.393793258   0.024212381
B        0.196896634   0.803103366   0.024212381
B        0.469761624   0.530238376   0.309076049
B        0.060476751   0.530238376   0.309076049
B        0.469761624   0.939523249   0.309076049
B        0.095598386   0.547799198   0.558257037
B        0.452200802   0.904401614   0.558257037
B        0.452200802   0.547799198   0.558257037
B        0.547799198   0.452200802   0.441742963
B        0.904401614   0.452200802   0.441742963
B        0.547799198   0.095598386   0.441742963
B        0.272834269   0.136417140   0.357503226
B        0.863582860   0.727165731   0.357503226
B        0.863582860   0.136417140   0.357503226
B        0.136417140   0.863582860   0.642496774
B        0.727165731   0.863582860   0.642496774
B        0.136417140   0.272834269   0.642496774
B        0.762245781   0.881122890   0.891526425
B        0.118877110   0.237754219   0.891526425
B        0.118877110   0.881122890   0.891526425
B        0.214513425   0.785486575   0.775142432
B        0.570973140   0.785486575   0.775142432
B        0.214513425   0.429026860   0.775142432
B        0.939523249   0.469761624   0.690923951
B        0.530238376   0.060476751   0.690923951
B        0.530238376   0.469761624   0.690923951
B        0.803103366   0.196896634   0.975787619
B        0.393793258   0.196896634   0.975787619
B        0.803103366   0.606206742   0.975787619



     Writing output data file pw.save/
     NEW-OLD atomic charge density approx. for the potential

     Check: negative core charge=   -0.000001
     extrapolated charge  108.07484, renormalised to  108.00000

     total cpu time spent up to now is      599.0 secs

     Self-consistent Calculation

     iteration #  1     ecut=    43.00 Ry     beta= 0.70
     Davidson diagonalization with overlap
     ethr =  1.00E-06,  avg # of iterations = 13.1

     total cpu time spent up to now is      720.4 secs

     total energy              =    -412.50067453 Ry
     Harris-Foulkes estimate   =    -412.56409818 Ry
     estimated scf accuracy    <       0.02251378 Ry

     total magnetization       =     0.00 Bohr mag/cell
     absolute magnetization    =     0.01 Bohr mag/cell

     iteration #  2     ecut=    43.00 Ry     beta= 0.70
     Davidson diagonalization with overlap
     ethr =  2.08E-05,  avg # of iterations =  7.0

     total cpu time spent up to now is      820.9 secs

     total energy              =    -412.48255263 Ry
     Harris-Foulkes estimate   =    -412.55740333 Ry
     estimated scf accuracy    <       0.26773242 Ry

     total magnetization       =     0.00 Bohr mag/cell
     absolute magnetization    =     0.01 Bohr mag/cell

     iteration #  3     ecut=    43.00 Ry     beta= 0.70
     Davidson diagonalization with overlap
     ethr =  2.08E-05,  avg # of iterations =  6.1

     Magnetic moment per site:
     atom:    1    charge:    1.2864    magn:   -0.0001    constr:    0.0000
     atom:    2    charge:    1.2864    magn:   -0.0001    constr:    0.0000
     atom:    3    charge:    1.2864    magn:   -0.0001    constr:    0.0000
     atom:    4    charge:    1.2855    magn:   -0.0001    constr:    0.0000
     atom:    5    charge:    1.2855    magn:   -0.0001    constr:    0.0000
     atom:    6    charge:    1.2855    magn:   -0.0001    constr:    0.0000
     atom:    7    charge:    1.1998    magn:    0.0000    constr:    0.0000
     atom:    8    charge:    1.1998    magn:    0.0000    constr:    0.0000
     atom:    9    charge:    1.1998    magn:    0.0000    constr:    0.0000
     atom:   10    charge:    1.2023    magn:    0.0000    constr:    0.0000
     atom:   11    charge:    1.2023    magn:    0.0000    constr:    0.0000
     atom:   12    charge:    1.2023    magn:    0.0000    constr:    0.0000
     atom:   13    charge:    1.2856    magn:   -0.0001    constr:    0.0000
     atom:   14    charge:    1.2856    magn:   -0.0001    constr:    0.0000
     atom:   15    charge:    1.2856    magn:   -0.0001    constr:    0.0000
     atom:   16    charge:    1.2856    magn:   -0.0001    constr:    0.0000
     atom:   17    charge:    1.2856    magn:   -0.0001    constr:    0.0000
     atom:   18    charge:    1.2856    magn:   -0.0001    constr:    0.0000
     atom:   19    charge:    1.2021    magn:    0.0000    constr:    0.0000
     atom:   20    charge:    1.2021    magn:    0.0000    constr:    0.0000
     atom:   21    charge:    1.2021    magn:    0.0000    constr:    0.0000
     atom:   22    charge:    1.2021    magn:    0.0000    constr:    0.0000
     atom:   23    charge:    1.2021    magn:    0.0000    constr:    0.0000
     atom:   24    charge:    1.2021    magn:    0.0000    constr:    0.0000
     atom:   25    charge:    1.2855    magn:   -0.0001    constr:    0.0000
     atom:   26    charge:    1.2855    magn:   -0.0001    constr:    0.0000
     atom:   27    charge:    1.2855    magn:   -0.0001    constr:    0.0000
     atom:   28    charge:    1.2864    magn:   -0.0001    constr:    0.0000
     atom:   29    charge:    1.2864    magn:   -0.0001    constr:    0.0000
     atom:   30    charge:    1.2864    magn:   -0.0001    constr:    0.0000
     atom:   31    charge:    1.2023    magn:    0.0000    constr:    0.0000
     atom:   32    charge:    1.2023    magn:    0.0000    constr:    0.0000
     atom:   33    charge:    1.2023    magn:    0.0000    constr:    0.0000
     atom:   34    charge:    1.1998    magn:    0.0000    constr:    0.0000
     atom:   35    charge:    1.1998    magn:    0.0000    constr:    0.0000
     atom:   36    charge:    1.1998    magn:    0.0000    constr:    0.0000

     total cpu time spent up to now is      914.7 secs

     End of self-consistent calculation

 ------ SPIN UP ------------


          k = 0.0834 0.1444 0.0975 (  8408 PWs)   bands (ev):

    -7.0222  -6.8145  -6.5518  -3.4213  -2.6776  -2.2732  -2.1365  -2.0622
    -1.6464  -1.6167  -1.5289  -1.4503  -0.0680   0.0613   0.2484   0.2750
     0.4247   0.4836   0.9756   1.0123   1.0923   1.3980   1.6931   2.0075
     2.4377   2.5678   2.5873   3.1101   3.1328   3.2291   3.2523   3.3850
     3.8450   4.0709   4.6636   4.7059   5.1888   5.2611   5.3891   5.8680
     6.0538   6.1731   6.3731   6.5462   6.6767   7.0204   7.1336   7.3506
     7.5355   7.8077   7.8862   8.1711   8.2459   8.2926  10.7687  11.2254
    11.6423  11.8941  12.3182  12.3426  12.5775  12.8807  13.1035  13.3775
    13.4926

          k = 0.0834 0.3369 0.0975 (  8389 PWs)   bands (ev):

    -6.6862  -6.5101  -6.2704  -3.5013  -3.4387  -3.1159  -2.9652  -2.3285
    -2.2720  -2.1582  -1.8992  -1.7025  -0.4131  -0.1725   0.0435   0.9120
     0.9744   1.0918   1.4283   1.4958   1.5184   1.7055   1.9454   2.4842
     2.5370   2.6222   2.8793   3.2157   3.5823   3.9508   4.2371   4.4663
     4.5401   4.6927   4.8190   5.0222   5.1519   5.2110   5.7949   5.9413
     6.2119   6.2642   6.2972   6.3429   6.5092   6.5447   6.9631   6.9763
     7.1462   7.1758   7.3113   7.3441   7.8105   7.9902  10.9135  11.0934
    11.2678  11.9564  12.0353  12.4390  12.4776  12.9004  12.9283  13.0925
    13.1420

          k = 0.0834 0.5295 0.0975 (  8383 PWs)   bands (ev):

    -6.2515  -6.2112  -6.0263  -4.2170  -4.0369  -3.9475  -2.6234  -2.4978
    -2.4467  -2.2055  -2.0980  -1.8740  -0.6614  -0.3942  -0.1662   0.2399
     0.7491   1.0564   1.5361   1.6759   2.4497   2.8116   2.9579   3.0223
     3.1234   3.2079   3.7273   3.7420   3.8098   3.8377   3.9455   4.5581
     4.6292   4.6612   4.7296   5.1274   5.2016   5.7255   5.7447   5.8153
     5.9177   6.0957   6.1034   6.2885   6.4026   6.5162   6.5407   7.0359
     7.1499   7.1609   7.1952   7.2895   7.4936   8.1940  10.5263  10.6997
    10.8218  11.6140  11.9710  12.1554  12.2139  12.5553  12.6001  12.6334
    13.6113

          k = 0.0834-0.4332 0.0975 (  8379 PWs)   bands (ev):

    -6.4721  -6.2843  -6.1417  -3.8893  -3.8194  -3.6705  -2.8606  -2.4597
    -2.2615  -2.2486  -2.0964  -1.6127  -0.6034  -0.3508  -0.0990   0.1697
     0.7544   1.4978   1.5982   1.9168   2.1866   2.2026   2.4204   2.6015
     2.8607   2.8878   3.3828   3.4294   3.5185   3.6477   3.7784   4.9874
     5.1250   5.1569   5.1925   5.3963   5.4493   5.4787   5.5091   5.6744
     5.7273   5.9657   5.9982   6.3382   6.4217   6.5561   6.8479   6.9127
     6.9257   6.9647   7.1202   7.2942   7.5377   8.3046  10.5645  10.9215
    11.0115  11.9994  12.1820  12.3551  12.4114  12.5228  12.8646  13.1815
    13.2106

          k = 0.0834-0.2407 0.0975 (  8384 PWs)   bands (ev):

    -6.8842  -6.6814  -6.4334  -3.2912  -2.8889  -2.8278  -2.6997  -2.3474
    -1.9429  -1.8892  -1.7387  -1.5545  -0.1826  -0.0410   0.2504   0.6063
     0.6609   0.8949   1.0930   1.1576   1.6410   1.7418   1.8925   2.1301
     2.1875   2.3556   2.8118   2.9169   3.3919   3.5678   3.8208   3.8615
     3.9112   4.1591   4.9417   4.9632   5.2812   5.3750   5.7536   5.9010
     6.0195   6.2365   6.4616   6.6063   6.7584   6.8171   6.8821   7.2243
     7.2433   7.2566   7.6476   7.6775   7.8106   8.2767  11.0578  11.2969
    11.6203  11.8734  12.1087  12.1991  12.4744  12.8729  13.0079  13.1119
    13.4050

          k = 0.0834-0.0481 0.0975 (  8416 PWs)   bands (ev):

    -7.0935  -6.8830  -6.6152  -3.4881  -2.6928  -1.7854  -1.7420  -1.6751
    -1.4938  -1.4756  -1.3348  -1.2304  -0.3320  -0.1494   0.0473   0.2817
     0.5056   0.5112   0.5535   0.5551   0.7679   1.1491   2.1776   2.2264
     2.3742   2.6979   2.7348   2.7527   2.7715   2.8261   3.1384   3.3317
     3.7801   3.8783   4.5481   4.7361   4.9335   5.2163   5.5038   5.7970
     5.9141   6.1291   6.3503   6.4996   6.8314   7.0108   7.1853   7.2761
     7.5520   7.8902   8.0691   8.4604   8.5904   8.7362  10.6094  10.9804
    11.6098  11.8748  12.1811  12.5987  13.0702  13.1362  13.1412  13.5917
    13.7017

          k = 0.2501 0.4332 0.0975 (  8384 PWs)   bands (ev):

    -6.3133  -6.1830  -6.0375  -3.8311  -3.7695  -3.6969  -3.2406  -3.0132
    -2.9633  -2.5169  -2.0998  -1.7954   0.2893   0.7551   0.9026   0.9624
     0.9865   1.0734   1.1915   1.2095   1.4182   1.5132   2.0758   2.1848
     2.6391   3.4003   3.4798   3.6725   3.8854   3.9346   4.8953   4.9743
     4.9852   5.0332   5.0714   5.1688   5.3245   5.5384   5.6075   5.6741
     5.7443   5.8382   6.1998   6.4494   6.6137   6.8671   6.8945   6.9177
     7.0706   7.1050   7.2085   7.3698   7.6898   7.9026  10.6872  10.7349
    10.8446  11.7728  11.9035  11.9691  12.1146  12.2134  12.5166  12.9160
    13.3189

          k = 0.2501 0.6257 0.0975 (  8376 PWs)   bands (ev):

    -6.1546  -6.0593  -6.0020  -3.9415  -3.8529  -3.8029  -3.4027  -3.3454
    -3.1413  -2.2792  -2.1550  -1.8805   0.2362   0.6621   0.7594   0.9038
     1.1033   1.2913   1.3305   1.6043   1.8982   2.0086   2.0410   2.2377
     2.6242   2.9310   3.0437   3.2867   3.4942   3.7978   4.8855   5.0928
     5.3730   5.3938   5.4121   5.4559   5.4773   5.6551   5.7723   5.8523
     5.8998   5.9240   6.3935   6.4095   6.4707   6.5538   6.7554   6.8908
     6.9356   7.2351   7.2743   7.4465   7.4650   7.8766  10.7498  10.7594
    10.8186  11.4337  11.5361  11.7474  12.0981  12.1599  12.2131  12.9472
    13.0031

          k = 0.2501-0.3369 0.0975 (  8389 PWs)   bands (ev):

    -6.5093  -6.3529  -6.1439  -3.7104  -3.6198  -3.4175  -2.9741  -2.6451
    -2.6080  -2.5276  -2.1305  -1.7328   0.1906   0.3843   0.5540   0.6447
     0.9085   1.0104   1.1783   1.3250   1.3300   1.5485   2.0522   2.4758
     2.6798   3.3592   3.3848   3.5987   3.6480   3.8880   4.5101   4.8736
     4.9698   4.9944   5.0396   5.2578   5.2901   5.3155   5.4624   5.4765
     5.5236   5.9008   6.3223   6.3559   6.5975   6.7396   6.8563   6.9851
     7.1070   7.1737   7.2084   7.3746   7.8831   7.9129  10.7737  10.9211
    11.1094  11.8606  11.9044  12.2412  12.2725  12.5399  12.8678  12.9595
    13.3381

          k = 0.2501-0.1444 0.0975 (  8385 PWs)   bands (ev):

    -6.8152  -6.6255  -6.3736  -3.3335  -3.2204  -2.9104  -2.7982  -2.3972
    -1.9534  -1.7866  -1.7269  -1.5733  -0.6393  -0.3735  -0.1984   1.0270
     1.1346   1.2936   1.5023   1.5204   1.6553   1.7690   1.8151   1.8639
     1.9875   2.0673   2.6460   3.4484   3.5309   3.9130   4.1315   4.1543
     4.2055   4.2560   4.4779   5.0754   5.1176   5.3376   5.4756   5.7511
     6.2519   6.2754   6.5395   6.7233   6.7969   6.9097   7.0023   7.0718
     7.1871   7.2155   7.3315   7.6462   7.7117   7.9305  11.0865  11.1499
    11.2149  12.0488  12.2245  12.3043  12.7598  12.9350  12.9651  13.0293
    13.1880

          k = 0.4168 0.7220 0.0975 (  8369 PWs)   bands (ev):

    -6.1882  -6.1128  -6.0116  -4.1392  -3.9786  -3.9271  -3.0556  -2.9681
    -2.6968  -2.3314  -2.2004  -1.8333  -0.0248   0.2551   0.2777   0.5006
     0.6522   1.1042   1.4216   1.4717   2.4955   2.5751   2.6811   2.7586
     2.7842   2.8729   3.3097   3.4726   3.5179   3.9812   4.2567   4.9894
     4.9991   5.0341   5.1124   5.1851   5.2953   5.8116   5.8371   5.8467
     5.9791   6.1098   6.2279   6.2818   6.4548   6.5752   6.7241   6.9172
     6.9383   7.1782   7.2418   7.3726   7.4769   8.0671  10.6569  10.6860
    10.7604  11.4193  11.7487  12.0408  12.2714  12.3234  12.3761  12.8033
    13.2383

          k = 0.4168-0.2407 0.0975 (  8385 PWs)   bands (ev):

    -6.3601  -6.2792  -6.0643  -4.1527  -3.9834  -3.8202  -2.6674  -2.2449
    -2.1265  -2.0642  -2.0322  -1.8362  -0.9785  -0.6765  -0.4768   0.3780
     0.8869   0.9484   1.5883   1.7850   2.3299   2.9519   3.0473   3.0820
     3.1839   3.3655   3.4050   3.4339   3.4525   3.6761   3.7052   4.3957
     4.8705   5.0114   5.0634   5.2000   5.2091   5.5266   5.6998   5.7342
     5.7749   6.0220   6.0439   6.3217   6.3466   6.4382   6.4837   7.0669
     7.1143   7.1537   7.2057   7.3443   7.4931   8.2140  10.5012  10.8096
    10.8672  11.8600  12.0497  12.1578  12.4368  12.6182  12.6612  12.8104
    13.6659

          k =-0.0834 0.3369-0.0975 (  8389 PWs)   bands (ev):

    -6.6917  -6.4955  -6.2809  -3.4620  -3.3166  -3.2406  -3.0878  -2.3137
    -2.2500  -2.1123  -1.9439  -1.5648  -0.4326  -0.2184   0.0434   0.5055
     0.8093   1.2693   1.5146   1.6773   1.7058   1.8448   2.3207   2.3480
     2.5404   2.6253   2.8000   3.0728   3.3005   3.5223   3.8786   4.5706
     4.6149   4.7883   5.2297   5.2746   5.3737   5.4220   5.8283   5.9480
     6.1281   6.2073   6.2346   6.3407   6.4649   6.5651   6.7583   6.7934
     6.9834   7.0624   7.3370   7.5371   7.5472   8.3090  10.8490  11.1533
    11.3504  11.9544  12.1427  12.3651  12.6193  12.8257  12.8494  13.1709
    13.2252

          k =-0.0834 0.5295-0.0975 (  8383 PWs)   bands (ev):

    -6.2874  -6.1287  -6.0759  -4.1637  -4.0700  -3.9651  -2.6400  -2.5666
    -2.3176  -2.2626  -2.1777  -1.7219  -0.6757  -0.4108  -0.1684   0.0717
     0.7181   1.3126   1.4670   1.8171   2.5120   2.6512   2.8947   3.0308
     3.1257   3.2321   3.5439   3.6522   3.7888   3.8291   4.0048   4.5957
     4.6764   4.7487   4.7793   5.1975   5.2946   5.6366   5.7216   5.7771
     5.9487   6.0786   6.1067   6.2069   6.4715   6.6434   6.8225   6.8263
     6.8785   7.1012   7.2176   7.2902   7.4860   8.2625  10.5330  10.6492
    10.8838  11.6865  11.9552  12.1465  12.2175  12.4632  12.6348  12.8233
    13.4427

          k =-0.0834-0.4332-0.0975 (  8379 PWs)   bands (ev):

    -6.4549  -6.3296  -6.1101  -3.9652  -3.8166  -3.6024  -2.7885  -2.4416
    -2.3530  -2.2141  -1.9804  -1.8780  -0.5733  -0.3105  -0.0938   0.6158
     0.8379   0.9302   1.5706   1.6801   2.1476   2.2327   2.2890   2.6392
     3.0515   3.1839   3.3562   3.5075   3.5558   3.9128   3.9830   4.5142
     4.9674   5.0876   5.1432   5.3054   5.3771   5.4521   5.5023   5.5292
     5.8077   5.8530   6.2884   6.3949   6.4717   6.5070   6.6084   7.0253
     7.1392   7.1627   7.2054   7.2616   7.6230   8.1035  10.6051  10.8673
    10.9806  11.8697  12.1474  12.2238  12.5544  12.6254  12.8176  12.8422
    13.4395

          k =-0.0834-0.2407-0.0975 (  8384 PWs)   bands (ev):

    -6.8830  -6.6847  -6.4310  -3.3186  -2.9410  -2.7633  -2.5717  -2.4239
    -2.0003  -1.8797  -1.7130  -1.6037  -0.1960   0.0222   0.2180   0.5760
     0.7430   1.0017   1.1067   1.3016   1.5848   1.6097   1.8176   1.9297
     2.1087   2.3646   2.5672   3.2659   3.4606   3.7755   3.8981   3.9234
     3.9726   4.3429   4.6282   4.8418   5.1607   5.2354   5.5971   5.8267
     6.0968   6.1702   6.5476   6.6511   6.7975   6.9617   7.1093   7.1755
     7.2319   7.3816   7.6158   7.6323   7.9180   8.0331  11.1113  11.3317
    11.3968  12.0311  12.0607  12.0972  12.5562  12.8605  12.9831  13.0993
    13.3642

          k =-0.0834-0.0481-0.0975 (  8416 PWs)   bands (ev):

    -7.0937  -6.8828  -6.6154  -3.4869  -2.6943  -1.8388  -1.7328  -1.5895
    -1.5306  -1.4650  -1.3662  -1.2065  -0.3405  -0.1640   0.0983   0.3527
     0.4016   0.4300   0.5230   0.6483   0.7509   1.1905   1.9492   2.3864
     2.5297   2.6302   2.7277   2.8121   2.9175   2.9571   2.9904   3.0817
     3.8184   3.8307   4.5532   4.6151   5.0536   5.2241   5.6008   5.8406
     6.0076   6.1303   6.1551   6.7200   6.7485   6.8078   7.1000   7.4237
     7.5058   7.8959   8.0915   8.4866   8.5835   8.7356  10.6059  10.9880
    11.6140  11.9175  12.1193  12.7903  12.8790  12.9820  13.2686  13.5636
    13.7226

          k =-0.2501 0.6257-0.0975 (  8376 PWs)   bands (ev):

    -6.1385  -6.0941  -5.9826  -3.9855  -3.8213  -3.7705  -3.4578  -3.3048
    -3.1456  -2.3206  -2.0247  -1.9808   0.4167   0.4298   0.8303   0.9027
     1.0742   1.3006   1.3483   1.5782   1.9253   1.9618   2.1034   2.2144
     2.6107   2.8299   3.1687   3.2727   3.5774   3.7384   4.8997   5.1302
     5.2451   5.3764   5.4194   5.4466   5.5044   5.6318   5.8051   5.8461
     5.9204   5.9696   6.2397   6.3529   6.5944   6.7199   6.7341   6.8374
     6.9916   7.0921   7.3234   7.3496   7.6566   7.7972  10.7101  10.7918
    10.8413  11.3503  11.5883  11.7618  12.1081  12.1433  12.2248  12.8293
    13.1082

          k =-0.2501-0.3369-0.0975 (  8389 PWs)   bands (ev):

    -6.5148  -6.3383  -6.1542  -3.6649  -3.5695  -3.5202  -3.0076  -2.6921
    -2.5363  -2.4789  -2.2117  -1.6386   0.0794   0.3889   0.4706   0.6201
     0.8558   1.0653   1.2963   1.3413   1.4330   1.5340   2.3196   2.4424
     2.4747   3.2048   3.5069   3.5575   3.6375   3.6991   4.3204   5.0565
     5.0760   5.0885   5.1354   5.2194   5.3223   5.3575   5.4821   5.5512
     5.6930   5.8289   6.2139   6.2395   6.3849   6.8137   6.9390   6.9970
     7.0349   7.1314   7.1936   7.4821   7.6052   8.1346  10.7626  10.9922
    11.0594  11.9795  11.9940  12.0504  12.3263  12.4425  12.9973  13.0036
    13.3071

          k =-0.2501-0.1444-0.0975 (  8385 PWs)   bands (ev):

    -6.8188  -6.6160  -6.3806  -3.2291  -3.1659  -3.0227  -2.9648  -2.3365
    -1.9570  -1.7789  -1.5773  -1.5707  -0.6284  -0.4654  -0.1830   0.7061
     0.8268   1.4800   1.4850   1.5836   1.8062   1.8689   1.9350   2.0006
     2.3027   2.3494   2.5838   3.0995   3.2564   3.3547   3.7501   4.1019
     4.1507   4.3227   5.1654   5.2865   5.3142   5.5357   5.8437   5.9260
     5.9547   6.3932   6.4837   6.5675   6.5834   6.7548   6.8820   6.8940
     7.0698   7.1056   7.4899   7.5461   7.5661   8.3674  11.0082  11.0554
    11.5946  11.8536  12.3538  12.4178  12.8353  12.9392  12.9508  13.0306
    13.1005

          k =-0.4168-0.2407-0.0975 (  8385 PWs)   bands (ev):

    -6.3904  -6.2017  -6.1161  -4.0649  -4.0245  -3.8605  -2.7096  -2.3066
    -2.2466  -2.0601  -1.8387  -1.6821  -0.9957  -0.7284  -0.4772   0.0484
     0.7072   1.5128   1.5865   2.1822   2.3383   2.5095   3.0436   3.0549
     3.2259   3.2562   3.3057   3.3459   3.4673   3.5481   3.5703   4.7795
     4.9039   5.0064   5.2240   5.2679   5.3453   5.4183   5.6355   5.7601
     5.8198   5.9718   6.0003   6.1809   6.5388   6.6611   6.7529   6.8295
     6.9264   6.9299   6.9808   7.3089   7.5495   8.3509  10.4714  10.7654
    10.9827  11.9648  12.1502  12.2415  12.4061  12.4274  12.8089  12.9265
    13.3780

 ------ SPIN DOWN ----------


          k = 0.0834 0.1444 0.0975 (  8408 PWs)   bands (ev):

    -7.0222  -6.8145  -6.5518  -3.4216  -2.6780  -2.2732  -2.1366  -2.0623
    -1.6466  -1.6172  -1.5292  -1.4505  -0.0677   0.0616   0.2487   0.2755
     0.4252   0.4841   0.9759   1.0124   1.0926   1.3981   1.6931   2.0077
     2.4377   2.5677   2.5873   3.1104   3.1331   3.2292   3.2523   3.3848
     3.8448   4.0714   4.6640   4.7062   5.1882   5.2614   5.3894   5.8675
     6.0538   6.1733   6.3729   6.5461   6.6770   7.0200   7.1340   7.3504
     7.5351   7.8072   7.8861   8.1712   8.2456   8.2927  10.7698  11.2267
    11.6431  11.8953  12.3188  12.3433  12.5782  12.8814  13.1042  13.3786
    13.4935

          k = 0.0834 0.3369 0.0975 (  8389 PWs)   bands (ev):

    -6.6863  -6.5102  -6.2705  -3.5011  -3.4386  -3.1157  -2.9654  -2.3289
    -2.2719  -2.1583  -1.8992  -1.7031  -0.4126  -0.1721   0.0440   0.9118
     0.9747   1.0918   1.4286   1.4956   1.5185   1.7058   1.9454   2.4842
     2.5370   2.6222   2.8794   3.2158   3.5821   3.9505   4.2377   4.4668
     4.5401   4.6928   4.8192   5.0218   5.1514   5.2112   5.7944   5.9414
     6.2120   6.2644   6.2975   6.3429   6.5094   6.5451   6.9630   6.9763
     7.1459   7.1760   7.3112   7.3437   7.8099   7.9896  10.9143  11.0945
    11.2691  11.9574  12.0369  12.4399  12.4788  12.9012  12.9291  13.0935
    13.1429

          k = 0.0834 0.5295 0.0975 (  8383 PWs)   bands (ev):

    -6.2517  -6.2114  -6.0265  -4.2166  -4.0366  -3.9471  -2.6235  -2.4979
    -2.4469  -2.2055  -2.0983  -1.8746  -0.6610  -0.3937  -0.1657   0.2402
     0.7491   1.0568   1.5362   1.6756   2.4495   2.8116   2.9576   3.0223
     3.1232   3.2077   3.7271   3.7422   3.8105   3.8382   3.9459   4.5583
     4.6292   4.6614   4.7296   5.1270   5.2010   5.7253   5.7444   5.8151
     5.9175   6.0959   6.1038   6.2884   6.4025   6.5159   6.5408   7.0359
     7.1499   7.1610   7.1950   7.2897   7.4931   8.1933  10.5271  10.7007
    10.8228  11.6152  11.9726  12.1567  12.2155  12.5563  12.6012  12.6348
    13.6125

          k = 0.0834-0.4332 0.0975 (  8379 PWs)   bands (ev):

    -6.4723  -6.2844  -6.1419  -3.8890  -3.8191  -3.6703  -2.8610  -2.4596
    -2.2620  -2.2485  -2.0964  -1.6134  -0.6030  -0.3503  -0.0986   0.1701
     0.7544   1.4978   1.5982   1.9166   2.1867   2.2027   2.4204   2.6016
     2.8606   2.8876   3.3827   3.4294   3.5185   3.6475   3.7790   4.9877
     5.1250   5.1567   5.1926   5.3964   5.4494   5.4788   5.5092   5.6743
     5.7270   5.9654   5.9987   6.3379   6.4219   6.5560   6.8475   6.9123
     6.9258   6.9648   7.1200   7.2942   7.5378   8.3039  10.5655  10.9222
    11.0126  12.0009  12.1833  12.3561  12.4128  12.5240  12.8658  13.1826
    13.2118

          k = 0.0834-0.2407 0.0975 (  8384 PWs)   bands (ev):

    -6.8842  -6.6814  -6.4334  -3.2915  -2.8888  -2.8279  -2.6997  -2.3476
    -1.9429  -1.8893  -1.7389  -1.5551  -0.1822  -0.0406   0.2509   0.6065
     0.6608   0.8950   1.0932   1.1577   1.6411   1.7419   1.8926   2.1302
     2.1876   2.3557   2.8116   2.9169   3.3918   3.5676   3.8210   3.8617
     3.9114   4.1595   4.9420   4.9635   5.2807   5.3751   5.7538   5.9008
     6.0198   6.2362   6.4616   6.6063   6.7583   6.8167   6.8819   7.2243
     7.2435   7.2567   7.6478   7.6772   7.8103   8.2761  11.0592  11.2979
    11.6217  11.8741  12.1094  12.2005  12.4750  12.8738  13.0089  13.1126
    13.4057

          k = 0.0834-0.0481 0.0975 (  8416 PWs)   bands (ev):

    -7.0935  -6.8830  -6.6152  -3.4884  -2.6932  -1.7856  -1.7421  -1.6756
    -1.4941  -1.4759  -1.3351  -1.2309  -0.3318  -0.1492   0.0476   0.2823
     0.5061   0.5119   0.5543   0.5556   0.7686   1.1488   2.1774   2.2265
     2.3742   2.6982   2.7347   2.7527   2.7718   2.8264   3.1382   3.3316
     3.7806   3.8780   4.5484   4.7365   4.9339   5.2157   5.5042   5.7964
     5.9142   6.1294   6.3500   6.4993   6.8319   7.0113   7.1850   7.2756
     7.5520   7.8896   8.0685   8.4606   8.5906   8.7364  10.6102  10.9815
    11.6111  11.8754  12.1817  12.5994  13.0706  13.1371  13.1418  13.5929
    13.7030

          k = 0.2501 0.4332 0.0975 (  8384 PWs)   bands (ev):

    -6.3135  -6.1832  -6.0378  -3.8308  -3.7692  -3.6966  -3.2404  -3.0129
    -2.9631  -2.5172  -2.1004  -1.7961   0.2895   0.7551   0.9025   0.9626
     0.9867   1.0736   1.1917   1.2098   1.4185   1.5137   2.0758   2.1849
     2.6390   3.4002   3.4794   3.6727   3.8856   3.9348   4.8955   4.9746
     4.9848   5.0332   5.0712   5.1686   5.3241   5.5386   5.6074   5.6739
     5.7442   5.8383   6.1994   6.4491   6.6138   6.8672   6.8944   6.9176
     7.0705   7.1050   7.2084   7.3695   7.6893   7.9019  10.6882  10.7359
    10.8456  11.7739  11.9050  11.9703  12.1159  12.2148  12.5180  12.9172
    13.3203

          k = 0.2501 0.6257 0.0975 (  8376 PWs)   bands (ev):

    -6.1548  -6.0595  -6.0023  -3.9412  -3.8526  -3.8025  -3.4025  -3.3450
    -3.1410  -2.2797  -2.1555  -1.8811   0.2364   0.6622   0.7595   0.9040
     1.1034   1.2916   1.3305   1.6043   1.8984   2.0086   2.0412   2.2376
     2.6243   2.9313   3.0435   3.2871   3.4946   3.7980   4.8859   5.0923
     5.3728   5.3935   5.4120   5.4556   5.4769   5.6551   5.7721   5.8520
     5.8997   5.9238   6.3935   6.4095   6.4706   6.5537   6.7552   6.8909
     6.9356   7.2350   7.2743   7.4461   7.4646   7.8760  10.7508  10.7605
    10.8197  11.4348  11.5373  11.7487  12.0995  12.1614  12.2146  12.9487
    13.0046

          k = 0.2501-0.3369 0.0975 (  8389 PWs)   bands (ev):

    -6.5094  -6.3530  -6.1441  -3.7102  -3.6196  -3.4173  -2.9742  -2.6450
    -2.6080  -2.5275  -2.1309  -1.7335   0.1909   0.3845   0.5540   0.6450
     0.9086   1.0107   1.1787   1.3250   1.3301   1.5487   2.0522   2.4759
     2.6797   3.3591   3.3848   3.5986   3.6480   3.8877   4.5105   4.8740
     4.9699   4.9939   5.0394   5.2578   5.2898   5.3154   5.4626   5.4767
     5.5237   5.9009   6.3221   6.3556   6.5977   6.7399   6.8561   6.9850
     7.1069   7.1736   7.2081   7.3744   7.8825   7.9124  10.7745  10.9221
    11.1103  11.8621  11.9058  12.2425  12.2740  12.5410  12.8688  12.9608
    13.3390

          k = 0.2501-0.1444 0.0975 (  8385 PWs)   bands (ev):

    -6.8153  -6.6256  -6.3737  -3.3338  -3.2202  -2.9104  -2.7981  -2.3976
    -1.9536  -1.7867  -1.7276  -1.5735  -0.6386  -0.3730  -0.1977   1.0271
     1.1342   1.2935   1.5022   1.5209   1.6558   1.7690   1.8155   1.8639
     1.9876   2.0672   2.6461   3.4483   3.5308   3.9131   4.1315   4.1545
     4.2058   4.2565   4.4783   5.0748   5.1173   5.3379   5.4758   5.7504
     6.2520   6.2755   6.5398   6.7236   6.7970   6.9100   7.0025   7.0715
     7.1869   7.2152   7.3318   7.6456   7.7111   7.9300  11.0872  11.1513
    11.2162  12.0505  12.2249  12.3051  12.7604  12.9359  12.9660  13.0302
    13.1889

          k = 0.4168 0.7220 0.0975 (  8369 PWs)   bands (ev):

    -6.1884  -6.1130  -6.0119  -4.1388  -3.9782  -3.9267  -3.0554  -2.9680
    -2.6966  -2.3319  -2.2009  -1.8340  -0.0247   0.2555   0.2781   0.5008
     0.6524   1.1044   1.4217   1.4717   2.4954   2.5749   2.6810   2.7585
     2.7840   2.8726   3.3099   3.4732   3.5186   3.9815   4.2572   4.9891
     4.9991   5.0340   5.1122   5.1846   5.2949   5.8114   5.8370   5.8464
     5.9789   6.1094   6.2282   6.2819   6.4547   6.5751   6.7243   6.9171
     6.9380   7.1782   7.2418   7.3725   7.4764   8.0664  10.6577  10.6870
    10.7615  11.4205  11.7502  12.0424  12.2727  12.3246  12.3774  12.8047
    13.2397

          k = 0.4168-0.2407 0.0975 (  8385 PWs)   bands (ev):

    -6.3602  -6.2794  -6.0645  -4.1524  -3.9830  -3.8198  -2.6678  -2.2450
    -2.1270  -2.0642  -2.0328  -1.8363  -0.9779  -0.6759  -0.4761   0.3782
     0.8867   0.9487   1.5883   1.7846   2.3299   2.9517   3.0477   3.0815
     3.1842   3.3652   3.4046   3.4341   3.4528   3.6759   3.7059   4.3964
     4.8707   5.0110   5.0636   5.1993   5.2094   5.5264   5.6997   5.7337
     5.7747   6.0221   6.0446   6.3216   6.3465   6.4383   6.4838   7.0664
     7.1143   7.1537   7.2058   7.3444   7.4926   8.2133  10.5020  10.8106
    10.8682  11.8609  12.0513  12.1594  12.4384  12.6195  12.6621  12.8115
    13.6668

          k =-0.0834 0.3369-0.0975 (  8389 PWs)   bands (ev):

    -6.6917  -6.4956  -6.2810  -3.4618  -3.3164  -3.2405  -3.0882  -2.3140
    -2.2500  -2.1123  -1.9439  -1.5655  -0.4322  -0.2179   0.0439   0.5057
     0.8091   1.2695   1.5148   1.6775   1.7060   1.8448   2.3208   2.3481
     2.5403   2.6254   2.7999   3.0727   3.3003   3.5222   3.8792   4.5707
     4.6150   4.7884   5.2296   5.2746   5.3737   5.4220   5.8280   5.9485
     6.1281   6.2072   6.2348   6.3408   6.4646   6.5649   6.7582   6.7934
     6.9832   7.0625   7.3366   7.5369   7.5473   8.3083  10.8500  11.1546
    11.3510  11.9560  12.1437  12.3664  12.6205  12.8265  12.8504  13.1716
    13.2258

          k =-0.0834 0.5295-0.0975 (  8383 PWs)   bands (ev):

    -6.2876  -6.1289  -6.0762  -4.1634  -4.0696  -3.9647  -2.6403  -2.5665
    -2.3181  -2.2627  -2.1777  -1.7226  -0.6753  -0.4103  -0.1679   0.0721
     0.7181   1.3128   1.4670   1.8168   2.5118   2.6512   2.8945   3.0307
     3.1255   3.2319   3.5436   3.6526   3.7894   3.8294   4.0052   4.5955
     4.6763   4.7487   4.7798   5.1969   5.2943   5.6367   5.7214   5.7769
     5.9485   6.0789   6.1068   6.2064   6.4714   6.6435   6.8223   6.8261
     6.8786   7.1012   7.2177   7.2900   7.4858   8.2618  10.5341  10.6500
    10.8848  11.6878  11.9567  12.1478  12.2192  12.4644  12.6358  12.8247
    13.4440

          k =-0.0834-0.4332-0.0975 (  8379 PWs)   bands (ev):

    -6.4550  -6.3298  -6.1103  -3.9649  -3.8163  -3.6022  -2.7888  -2.4415
    -2.3530  -2.2144  -1.9806  -1.8786  -0.5729  -0.3100  -0.0933   0.6160
     0.8378   0.9306   1.5703   1.6801   2.1478   2.2328   2.2889   2.6393
     3.0513   3.1840   3.3563   3.5074   3.5558   3.9125   3.9836   4.5147
     4.9669   5.0870   5.1433   5.3052   5.3773   5.4521   5.5024   5.5291
     5.8075   5.8533   6.2888   6.3948   6.4716   6.5070   6.6082   7.0254
     7.1389   7.1628   7.2054   7.2617   7.6224   8.1028  10.6059  10.8683
    10.9816  11.8708  12.1489  12.2252  12.5559  12.6264  12.8188  12.8433
    13.4405

          k =-0.0834-0.2407-0.0975 (  8384 PWs)   bands (ev):

    -6.8830  -6.6847  -6.4310  -3.3189  -2.9411  -2.7633  -2.5716  -2.4242
    -2.0003  -1.8798  -1.7131  -1.6043  -0.1955   0.0225   0.2185   0.5762
     0.7432   1.0018   1.1067   1.3017   1.5849   1.6097   1.8177   1.9299
     2.1088   2.3645   2.5673   3.2659   3.4605   3.7758   3.8982   3.9231
     3.9727   4.3434   4.6287   4.8421   5.1600   5.2352   5.5973   5.8262
     6.0969   6.1703   6.5480   6.6513   6.7974   6.9617   7.1092   7.1757
     7.2317   7.3814   7.6158   7.6321   7.9176   8.0325  11.1127  11.3323
    11.3981  12.0327  12.0615  12.0979  12.5569  12.8612  12.9841  13.1000
    13.3649

          k =-0.0834-0.0481-0.0975 (  8416 PWs)   bands (ev):

    -7.0936  -6.8828  -6.6154  -3.4872  -2.6947  -1.8389  -1.7331  -1.5898
    -1.5310  -1.4653  -1.3666  -1.2070  -0.3403  -0.1638   0.0986   0.3533
     0.4022   0.4308   0.5234   0.6490   0.7515   1.1903   1.9491   2.3864
     2.5298   2.6302   2.7281   2.8123   2.9175   2.9570   2.9902   3.0816
     3.8185   3.8308   4.5534   4.6156   5.0539   5.2235   5.6011   5.8403
     6.0080   6.1297   6.1551   6.7197   6.7490   6.8074   7.1005   7.4233
     7.5058   7.8954   8.0909   8.4867   8.5837   8.7358  10.6067  10.9891
[...]
     6.2139   6.2679   6.2867   6.3346   6.4996   6.5482   6.9633   6.9696
     7.1407   7.1669   7.3020   7.3308   7.8012   7.9793  10.9187  11.0978
    11.2689  11.9612  12.0500  12.4441  12.4828  12.9203  12.9283  13.0995
    13.1438

          k = 0.0833 0.5292 0.0975 (  8390 PWs)   bands (ev):

    -6.2310  -6.2262  -6.0314  -4.2024  -4.0209  -3.9438  -2.6216  -2.4909
    -2.4536  -2.1997  -2.1045  -1.8775  -0.6488  -0.3799  -0.1545   0.2376
     0.7431   1.0587   1.5291   1.6675   2.4450   2.8184   2.9592   3.0274
     3.1323   3.2105   3.7328   3.7546   3.8145   3.8503   3.9481   4.5661
     4.6352   4.6611   4.7197   5.1250   5.1944   5.7391   5.7404   5.8113
     5.9125   6.1024   6.1091   6.2867   6.4018   6.5134   6.5311   7.0214
     7.1365   7.1489   7.1750   7.2841   7.4783   8.1814  10.5335  10.7067
    10.8213  11.6199  11.9822  12.1671  12.2170  12.5734  12.5980  12.6523
    13.6228

          k = 0.0833-0.4330 0.0975 (  8385 PWs)   bands (ev):

    -6.4674  -6.2805  -6.1456  -3.8696  -3.8129  -3.6682  -2.8690  -2.4512
    -2.2656  -2.2411  -2.0953  -1.6172  -0.5922  -0.3376  -0.0883   0.1666
     0.7504   1.4898   1.5974   1.9168   2.1909   2.2070   2.4275   2.6037
     2.8677   2.8768   3.4030   3.4303   3.5162   3.6515   3.7791   4.9937
     5.1294   5.1501   5.2064   5.4087   5.4554   5.4816   5.5062   5.6694
     5.7292   5.9671   6.0040   6.3286   6.4118   6.5416   6.8368   6.9081
     6.9162   6.9516   7.1087   7.2804   7.5269   8.2939  10.5714  10.9277
    11.0092  12.0121  12.1894  12.3626  12.4195  12.5273  12.8726  13.2062
    13.2199

          k = 0.0833-0.2405 0.0975 (  8393 PWs)   bands (ev):

    -6.8780  -6.6774  -6.4311  -3.2995  -2.8756  -2.8313  -2.6986  -2.3462
    -1.9274  -1.8898  -1.7409  -1.5561  -0.1694  -0.0324   0.2601   0.6197
     0.6596   0.8963   1.0946   1.1571   1.6447   1.7387   1.8975   2.1315
     2.1861   2.3540   2.8067   2.9161   3.3916   3.5670   3.8498   3.8704
     3.9123   4.1673   4.9488   4.9511   5.2794   5.3755   5.7491   5.8946
     6.0171   6.2239   6.4542   6.6018   6.7514   6.8065   6.8763   7.2309
     7.2398   7.2490   7.6523   7.6675   7.8015   8.2681  11.0633  11.3005
    11.6321  11.8756  12.1073  12.2164  12.4825  12.8779  13.0118  13.1115
    13.4077

          k = 0.0833-0.0481 0.0975 (  8420 PWs)   bands (ev):

    -7.0867  -6.8783  -6.6113  -3.4960  -2.6981  -1.7671  -1.7495  -1.6801
    -1.4940  -1.4711  -1.3306  -1.2398  -0.3232  -0.1414   0.0553   0.2947
     0.5383   0.5412   0.5439   0.5470   0.7741   1.1421   2.1722   2.2185
     2.3648   2.7133   2.7249   2.7692   2.8065   2.8156   3.1364   3.3301
     3.7828   3.8774   4.5482   4.7325   4.9310   5.2120   5.5051   5.7756
     5.9084   6.1297   6.3386   6.4904   6.8367   7.0166   7.1793   7.2637
     7.5500   7.8799   8.0594   8.4659   8.5928   8.7317  10.6141  10.9921
    11.6332  11.8764  12.1807  12.5984  13.0745  13.1307  13.1399  13.6003
    13.7122

          k = 0.2500 0.4330 0.0975 (  8392 PWs)   bands (ev):

    -6.3079  -6.1816  -6.0430  -3.8146  -3.7525  -3.7020  -3.2322  -2.9909
    -2.9688  -2.5207  -2.1043  -1.8017   0.2829   0.7526   0.8993   0.9817
     0.9843   1.0709   1.2065   1.2078   1.4297   1.5197   2.0735   2.1855
     2.6394   3.4057   3.4791   3.6862   3.9188   3.9214   4.8938   4.9723
     4.9843   5.0353   5.0544   5.1600   5.3253   5.5412   5.6238   5.6850
     5.7444   5.8398   6.1976   6.4399   6.6099   6.8638   6.8961   6.9004
     7.0596   7.0938   7.1899   7.3557   7.6786   7.8916  10.7029  10.7371
    10.8390  11.7863  11.9164  11.9722  12.1242  12.2201  12.5248  12.9321
    13.3332

          k = 0.2500 0.6254 0.0975 (  8379 PWs)   bands (ev):

    -6.1481  -6.0451  -6.0249  -3.9240  -3.8273  -3.8136  -3.3870  -3.3391
    -3.1349  -2.2836  -2.1613  -1.8871   0.2312   0.6552   0.7561   0.9133
     1.1120   1.2974   1.3294   1.6049   1.9076   2.0150   2.0448   2.2404
     2.6283   2.9402   3.0468   3.2936   3.5004   3.8032   4.8820   5.0899
     5.3924   5.3987   5.4114   5.4401   5.4754   5.6497   5.7803   5.8659
     5.9028   5.9160   6.3926   6.4011   6.4624   6.5437   6.7477   6.8823
     6.9204   7.2222   7.2635   7.4336   7.4534   7.8650  10.7719  10.7831
    10.7912  11.4459  11.5441  11.7551  12.1140  12.1715  12.2138  12.9617
    13.0147

          k = 0.2500-0.3368 0.0975 (  8401 PWs)   bands (ev):

    -6.5038  -6.3512  -6.1453  -3.6976  -3.6141  -3.4123  -2.9753  -2.6240
    -2.6109  -2.5293  -2.1322  -1.7383   0.2012   0.3923   0.5466   0.6542
     0.9079   1.0097   1.1871   1.3195   1.3355   1.5553   2.0479   2.4762
     2.6783   3.3742   3.3818   3.6156   3.6470   3.8902   4.5087   4.8720
     4.9658   4.9900   5.0529   5.2856   5.2962   5.2997   5.4768   5.4789
     5.4981   5.9047   6.3108   6.3567   6.5894   6.7409   6.8475   6.9756
     7.1019   7.1687   7.1883   7.3606   7.8744   7.9005  10.7806  10.9242
    11.1070  11.8756  11.9078  12.2549  12.2747  12.5464  12.8846  12.9677
    13.3483

          k = 0.2500-0.1443 0.0975 (  8392 PWs)   bands (ev):

    -6.8091  -6.6222  -6.3717  -3.3387  -3.2144  -2.9026  -2.7948  -2.4006
    -1.9478  -1.7839  -1.7326  -1.5737  -0.6242  -0.3574  -0.1858   1.0255
     1.1290   1.2895   1.5013   1.5325   1.6622   1.7732   1.8168   1.8535
     1.9968   2.0652   2.6411   3.4491   3.5350   3.9231   4.1548   4.1648
     4.2087   4.2536   4.4860   5.0686   5.1156   5.3319   5.4725   5.7321
     6.2382   6.2684   6.5443   6.7304   6.7911   6.9126   6.9975   7.0684
     7.1757   7.2055   7.3306   7.6371   7.7028   7.9204  11.0925  11.1605
    11.2118  12.0707  12.2286  12.3083  12.7568  12.9565  12.9657  13.0147
    13.1990

          k = 0.4166 0.7216 0.0975 (  8373 PWs)   bands (ev):

    -6.1806  -6.1114  -6.0220  -4.1237  -3.9481  -3.9386  -3.0421  -2.9661
    -2.6904  -2.3362  -2.2063  -1.8388  -0.0202   0.2676   0.2790   0.5056
     0.6495   1.1035   1.4180   1.4672   2.4965   2.5756   2.6905   2.7706
     2.7873   2.8703   3.3191   3.4893   3.5173   3.9877   4.2542   5.0025
     5.0158   5.0214   5.1084   5.1772   5.2921   5.8327   5.8330   5.8385
     5.9772   6.1093   6.2296   6.2742   6.4541   6.5682   6.7156   6.9109
     6.9176   7.1703   7.2287   7.3587   7.4629   8.0551  10.6771  10.6900
    10.7519  11.4268  11.7586  12.0506  12.2856  12.3395  12.3715  12.8205
    13.2488

          k = 0.4166-0.2405 0.0975 (  8385 PWs)   bands (ev):

    -6.3519  -6.2818  -6.0672  -4.1391  -3.9724  -3.8128  -2.6731  -2.2388
    -2.1342  -2.0606  -2.0397  -1.8348  -0.9630  -0.6591  -0.4625   0.3754
     0.8815   0.9494   1.5784   1.7784   2.3229   2.9586   3.0567   3.0854
     3.1854   3.3899   3.3987   3.4442   3.4506   3.6834   3.7069   4.4012
     4.8741   5.0086   5.0671   5.1945   5.2073   5.5414   5.7126   5.7233
     5.7710   6.0156   6.0541   6.3217   6.3411   6.4269   6.4804   7.0535
     7.1076   7.1287   7.1949   7.3398   7.4781   8.2011  10.5067  10.8208
    10.8633  11.8615  12.0660  12.1639  12.4449  12.6352  12.6717  12.8157
    13.6766

          k =-0.0833 0.3368-0.0975 (  8394 PWs)   bands (ev):

    -6.6861  -6.4921  -6.2807  -3.4495  -3.3044  -3.2449  -3.0964  -2.3149
    -2.2410  -2.1065  -1.9433  -1.5681  -0.4210  -0.2066   0.0533   0.5008
     0.8054   1.2760   1.5144   1.6948   1.6964   1.8412   2.3305   2.3409
     2.5462   2.6264   2.8036   3.0710   3.2997   3.5226   3.8759   4.6018
     4.6210   4.7966   5.2295   5.2766   5.3731   5.4169   5.8268   5.9496
     6.1274   6.2054   6.2305   6.3362   6.4530   6.5548   6.7503   6.7791
     6.9804   7.0541   7.3295   7.5279   7.5404   8.2994  10.8549  11.1562
    11.3505  11.9684  12.1453  12.3727  12.6272  12.8442  12.8531  13.1761
    13.2273

          k =-0.0833 0.5292-0.0975 (  8390 PWs)   bands (ev):

    -6.2827  -6.1109  -6.0981  -4.1460  -4.0553  -3.9632  -2.6442  -2.5609
    -2.3228  -2.2546  -2.1791  -1.7268  -0.6639  -0.3968  -0.1569   0.0694
     0.7135   1.3150   1.4591   1.8094   2.5075   2.6557   2.8949   3.0434
     3.1332   3.2314   3.5451   3.6561   3.8069   3.8349   4.0114   4.6017
     4.6835   4.7352   4.7845   5.1911   5.2927   5.6498   5.7152   5.7733
     5.9502   6.0887   6.1072   6.2088   6.4702   6.6339   6.8104   6.8193
     6.8629   7.0882   7.2075   7.2730   7.4702   8.2507  10.5424  10.6525
    10.8847  11.6945  11.9650  12.1563  12.2238  12.4727  12.6409  12.8410
    13.4570

          k =-0.0833-0.4330-0.0975 (  8385 PWs)   bands (ev):

    -6.4487  -6.3294  -6.1119  -3.9527  -3.8084  -3.5949  -2.7935  -2.4306
    -2.3535  -2.2164  -1.9784  -1.8842  -0.5603  -0.2963  -0.0822   0.6133
     0.8305   0.9305   1.5646   1.6718   2.1602   2.2405   2.2816   2.6433
     3.0490   3.1901   3.3665   3.5240   3.5535   3.9169   3.9838   4.5178
     4.9641   5.0876   5.1421   5.3165   5.3787   5.4673   5.4956   5.5297
     5.8055   5.8490   6.2942   6.3882   6.4721   6.4972   6.5951   7.0158
     7.1272   7.1515   7.1941   7.2519   7.6115   8.0912  10.6109  10.8731
    10.9803  11.8755  12.1578  12.2336  12.5634  12.6343  12.8317  12.8480
    13.4487

          k =-0.0833-0.2405-0.0975 (  8393 PWs)   bands (ev):

    -6.8768  -6.6809  -6.4286  -3.3267  -2.9364  -2.7570  -2.5678  -2.4262
    -1.9914  -1.8772  -1.7114  -1.6070  -0.1836   0.0336   0.2274   0.5839
     0.7496   1.0090   1.1040   1.2975   1.5820   1.6099   1.8207   1.9312
     2.1102   2.3597   2.5629   3.2670   3.4639   3.7972   3.9152   3.9283
     3.9742   4.3446   4.6293   4.8386   5.1552   5.2351   5.5928   5.8095
     6.0859   6.1622   6.5526   6.6485   6.7932   6.9593   7.1027   7.1713
     7.2252   7.3789   7.6177   7.6214   7.9111   8.0241  11.1177  11.3361
    11.4018  12.0529  12.0778  12.0814  12.5631  12.8664  12.9859  13.0986
    13.3670

          k =-0.0833-0.0481-0.0975 (  8420 PWs)   bands (ev):

    -7.0868  -6.8780  -6.6115  -3.4948  -2.6996  -1.8323  -1.7339  -1.5840
    -1.5358  -1.4586  -1.3675  -1.2123  -0.3317  -0.1570   0.1078   0.3758
     0.4076   0.4432   0.5234   0.6640   0.7543   1.1855   1.9412   2.3768
     2.5270   2.6337   2.7570   2.8249   2.9278   2.9638   2.9704   3.0787
     3.8248   3.8258   4.5535   4.6122   5.0505   5.2193   5.6011   5.8266
     6.0096   6.1112   6.1501   6.7147   6.7542   6.7947   7.1055   7.4155
     7.5018   7.8872   8.0818   8.4926   8.5847   8.7312  10.6105  10.9998
    11.6376  11.9183  12.1194  12.7912  12.8788  12.9791  13.2684  13.5731
    13.7290

          k =-0.2500 0.6254-0.0975 (  8379 PWs)   bands (ev):

    -6.1256  -6.0985  -5.9934  -3.9713  -3.7929  -3.7808  -3.4448  -3.2952
    -3.1396  -2.3257  -2.0277  -1.9902   0.4141   0.4217   0.8266   0.9117
     1.0806   1.3100   1.3477   1.5772   1.9421   1.9591   2.1065   2.2198
     2.6131   2.8372   3.1782   3.2780   3.5833   3.7426   4.8965   5.1301
     5.2424   5.3908   5.4179   5.4480   5.4938   5.6298   5.8184   5.8428
     5.9229   5.9689   6.2388   6.3476   6.5879   6.7089   6.7191   6.8307
     6.9822   7.0808   7.3089   7.3373   7.6450   7.7854  10.7229  10.8181
    10.8207  11.3599  11.5989  11.7693  12.1230  12.1551  12.2263  12.8439
    13.1206

          k =-0.2500-0.3368-0.0975 (  8401 PWs)   bands (ev):

    -6.5097  -6.3356  -6.1563  -3.6488  -3.5432  -3.5385  -3.0123  -2.6807
    -2.5207  -2.4847  -2.2150  -1.6434   0.0814   0.4016   0.4710   0.6238
     0.8564   1.0708   1.2913   1.3409   1.4432   1.5386   2.3201   2.4388
     2.4753   3.2056   3.5134   3.5692   3.6434   3.6988   4.3166   5.0604
     5.0768   5.1011   5.1287   5.2311   5.3343   5.3554   5.4840   5.5436
     5.6891   5.8301   6.2117   6.2393   6.3730   6.8034   6.9294   6.9844
     7.0314   7.1215   7.1849   7.4692   7.5943   8.1244  10.7696  11.0003
    11.0520  12.0016  12.0062  12.0426  12.3362  12.4455  13.0122  13.0169
    13.3190

          k =-0.2500-0.1443-0.0975 (  8392 PWs)   bands (ev):

    -6.8129  -6.6121  -6.3790  -3.2341  -3.1578  -3.0096  -2.9740  -2.3359
    -1.9515  -1.7761  -1.5778  -1.5737  -0.6127  -0.4525  -0.1707   0.7004
     0.8221   1.4830   1.4952   1.5827   1.8138   1.8768   1.9396   1.9960
     2.3039   2.3494   2.5794   3.0967   3.2561   3.3491   3.7474   4.1345
     4.1592   4.3324   5.1651   5.2873   5.3097   5.5348   5.8417   5.9208
     5.9601   6.3824   6.4739   6.5546   6.5660   6.7469   6.8756   6.8970
     7.0828   7.0933   7.4822   7.5338   7.5663   8.3582  11.0178  11.0547
    11.5981  11.8649  12.3569  12.4365  12.8446  12.9457  12.9501  13.0245
    13.1087

          k =-0.4166-0.2405-0.0975 (  8385 PWs)   bands (ev):

    -6.3859  -6.1947  -6.1250  -4.0341  -4.0269  -3.8567  -2.7186  -2.3117
    -2.2405  -2.0564  -1.8374  -1.6880  -0.9810  -0.7121  -0.4633   0.0455
     0.7032   1.5158   1.5763   2.1730   2.3320   2.5137   3.0483   3.0640
     3.2338   3.2777   3.3007   3.3456   3.4678   3.5596   3.5673   4.7858
     4.9097   5.0073   5.2234   5.2647   5.3449   5.4321   5.6418   5.7544
     5.8245   5.9813   5.9951   6.1814   6.5352   6.6496   6.7394   6.8096
     6.9161   6.9254   6.9699   7.2918   7.5359   8.3396  10.4787  10.7694
    10.9837  11.9769  12.1545  12.2528  12.4125  12.4341  12.8151  12.9429
    13.3959

     the Fermi energy is    10.4112 ev

!    total energy              =    -412.51680057 Ry
     Harris-Foulkes estimate   =    -412.51680379 Ry
     estimated scf accuracy    <       0.00000346 Ry

     total all-electron energy =     -1789.133303 Ry

     The total energy is the sum of the following terms:

     one-electron contribution =      80.72845190 Ry
     hartree contribution      =      24.97425242 Ry
     xc contribution           =    -107.01971586 Ry
     ewald contribution        =    -223.62673583 Ry
     one-center paw contrib.   =    -187.57550955 Ry
     smearing contrib. (-TS)   =       0.00245634 Ry

     total magnetization       =    -0.00 Bohr mag/cell
     absolute magnetization    =     0.00 Bohr mag/cell

     convergence has been achieved in   8 iterations

     Forces acting on atoms (cartesian axes, Ry/au):

     atom    1 type  1   force =     0.00053643    0.00030971   -0.00054541
     atom    2 type  1   force =    -0.00000000   -0.00061942   -0.00054541
     atom    3 type  1   force =    -0.00053643    0.00030971   -0.00054541
     atom    4 type  1   force =     0.00024676   -0.00014247    0.00023361
     atom    5 type  1   force =    -0.00024676   -0.00014247    0.00023361
     atom    6 type  1   force =    -0.00000000    0.00028494    0.00023361
     atom    7 type  1   force =     0.00037761    0.00021801    0.00011122
     atom    8 type  1   force =     0.00000000   -0.00043603    0.00011122
     atom    9 type  1   force =    -0.00037761    0.00021801    0.00011122
     atom   10 type  1   force =     0.00000220   -0.00000127   -0.00029432
     atom   11 type  1   force =    -0.00000220   -0.00000127   -0.00029432
     atom   12 type  1   force =     0.00000000    0.00000254   -0.00029432
     atom   13 type  1   force =     0.00045376    0.00026198   -0.00049277
     atom   14 type  1   force =     0.00000000   -0.00052396   -0.00049277
     atom   15 type  1   force =    -0.00045376    0.00026198   -0.00049277
     atom   16 type  1   force =     0.00045376   -0.00026198    0.00049277
     atom   17 type  1   force =    -0.00045376   -0.00026198    0.00049277
     atom   18 type  1   force =    -0.00000000    0.00052396    0.00049277
     atom   19 type  1   force =     0.00001523    0.00000879    0.00042168
     atom   20 type  1   force =     0.00000000   -0.00001759    0.00042168
     atom   21 type  1   force =    -0.00001523    0.00000879    0.00042168
     atom   22 type  1   force =     0.00001523   -0.00000879   -0.00042168
     atom   23 type  1   force =    -0.00001523   -0.00000879   -0.00042168
     atom   24 type  1   force =    -0.00000000    0.00001759   -0.00042168
     atom   25 type  1   force =     0.00024676    0.00014247   -0.00023361
     atom   26 type  1   force =     0.00000000   -0.00028494   -0.00023361
     atom   27 type  1   force =    -0.00024676    0.00014247   -0.00023361
     atom   28 type  1   force =     0.00053643   -0.00030971    0.00054541
     atom   29 type  1   force =    -0.00053643   -0.00030971    0.00054541
     atom   30 type  1   force =    -0.00000000    0.00061942    0.00054541
     atom   31 type  1   force =     0.00000220    0.00000127    0.00029432
     atom   32 type  1   force =     0.00000000   -0.00000254    0.00029432
     atom   33 type  1   force =    -0.00000220    0.00000127    0.00029432
     atom   34 type  1   force =     0.00037761   -0.00021801   -0.00011122
     atom   35 type  1   force =    -0.00037761   -0.00021801   -0.00011122
     atom   36 type  1   force =    -0.00000000    0.00043603   -0.00011122

     Total force =     0.003288     Total SCF correction =     0.004438
     SCF correction compared to forces is large: reduce conv_thr to get better values


     Computing stress (Cartesian axis) and pressure

          total   stress  (Ry/bohr**3)                   (kbar)     P=    0.30
   0.00000364  -0.00000000  -0.00000000          0.54     -0.00     -0.00
  -0.00000000   0.00000364  -0.00000000         -0.00      0.54     -0.00
   0.00000000   0.00000000  -0.00000112          0.00      0.00     -0.16


     Writing output data file pw.save/

     init_run     :    108.83s CPU     88.94s WALL (       2 calls)
     electrons    :   3082.67s CPU   2349.83s WALL (       6 calls)
     update_pot   :     45.91s CPU     46.22s WALL (       4 calls)
     forces       :    111.25s CPU     86.24s WALL (       6 calls)
     stress       :    394.80s CPU    356.34s WALL (       6 calls)

     Called by init_run:
     wfcinit      :     93.55s CPU     73.38s WALL (       2 calls)
     potinit      :      9.25s CPU      9.34s WALL (       2 calls)
     hinit0       :      4.62s CPU      4.73s WALL (       2 calls)

     Called by electrons:
     c_bands      :   2639.86s CPU   1972.88s WALL (      29 calls)
     sum_band     :    317.91s CPU    249.31s WALL (      29 calls)
     v_of_rho     :     23.78s CPU     24.12s WALL (      34 calls)
     newd         :     11.25s CPU     13.60s WALL (      34 calls)
     PAW_pot      :    125.39s CPU    125.60s WALL (      38 calls)
     mix_rho      :      1.97s CPU      1.84s WALL (      29 calls)

     Called by c_bands:
     init_us_2    :     32.72s CPU     27.45s WALL (    3192 calls)
     cegterg      :   2554.80s CPU   1901.41s WALL (    1218 calls)

     Called by sum_band:
     sum_band:bec :      0.48s CPU      0.49s WALL (    1386 calls)
     addusdens    :     11.81s CPU     13.21s WALL (      29 calls)

     Called by *egterg:
     h_psi        :   1636.98s CPU   1314.02s WALL (    6992 calls)
     s_psi        :    230.59s CPU    119.62s WALL (    6992 calls)
     g_psi        :      8.95s CPU      7.24s WALL (    5690 calls)
     cdiaghg      :    251.47s CPU    228.22s WALL (    6698 calls)

     Called by h_psi:
     h_psi:pot    :   1630.14s CPU   1307.98s WALL (    6992 calls)
     h_psi:calbec :    238.09s CPU    129.99s WALL (    6992 calls)
     vloc_psi     :   1147.62s CPU   1040.24s WALL (    6992 calls)
     add_vuspsi   :    244.25s CPU    137.55s WALL (    6992 calls)

     General routines
     calbec       :    386.08s CPU    208.14s WALL (    9638 calls)
     fft          :     12.39s CPU     12.54s WALL (    1084 calls)
     ffts         :      0.53s CPU      0.40s WALL (     126 calls)
     fftw         :   1191.25s CPU   1065.71s WALL (  598466 calls)
     interpolate  :      0.98s CPU      1.01s WALL (      68 calls)

     Parallel routines
     fft_scatt_xy :    186.05s CPU    165.81s WALL (  599676 calls)
     fft_scatt_yz :    181.73s CPU    168.14s WALL (  599676 calls)

     PWSCF        :      1h 2m CPU  49m13.07s WALL


   This run was terminated on:  14:21:15   7Nov2020            

=------------------------------------------------------------------------------=
   JOB DONE.
=------------------------------------------------------------------------------=
