--------------------------------------------------------------------------
WARNING: Linux kernel CMA support was requested via the
btl_vader_single_copy_mechanism MCA variable, but CMA support is
not available due to restrictive ptrace settings.

The vader shared memory BTL will fall back on another single-copy
mechanism if one is available. This may result in lower performance.

  Local host: DESKTOP-12SE80T
--------------------------------------------------------------------------

     Program PWSCF v.6.4.1 starts on  7Nov2020 at 13:13: 0 

     This program is part of the open-source Quantum ESPRESSO suite
     for quantum simulation of materials; please cite
         "P. Giannozzi et al., J. Phys.:Condens. Matter 21 395502 (2009);
         "P. Giannozzi et al., J. Phys.:Condens. Matter 29 465901 (2017);
          URL http://www.quantum-espresso.org", 
     in publications or presentations arising from this work. More details at
     http://www.quantum-espresso.org/quote

     Parallel version (MPI), running on     2 processors

     MPI processes distributed on     1 nodes
     R & G space division:  proc/nbgrp/npool/nimage =       2
     Waiting for input...
     Reading input from standard input

     Current dimensions of program PWSCF are:
     Max number of different atomic species (ntypx) = 10
     Max number of k-points (npk) =  40000
     Max angular momentum in pseudopotentials (lmaxx) =  3
               file H.pbe-kjpaw_psl.1.0.0.UPF: wavefunction(s)  1S renormalized

     Subspace diagonalization in iterative solution of the eigenvalue problem:
     a serial algorithm will be used

     Message from routine setup:
     DEPRECATED: symmetry with ibrav=0, use correct ibrav instead

     Parallelization info
     --------------------
     sticks:   dense  smooth     PW     G-vecs:    dense   smooth      PW
     Min         600     501    150                12165     9243    1501
     Max         601     502    151                12166     9246    1502
     Sum        1201    1003    301                24331    18489    3003



     bravais-lattice index     =            0
     lattice parameter (alat)  =       8.8817  a.u.
     unit-cell volume          =     438.9367 (a.u.)^3
     number of atoms/cell      =            2
     number of atomic types    =            1
     number of electrons       =         2.00
     number of Kohn-Sham states=            5
     kinetic-energy cutoff     =      46.0000  Ry
     charge density cutoff     =     221.0000  Ry
     convergence threshold     =      1.0E-06
     mixing beta               =       0.7000
     number of iterations used =            8  plain     mixing
     Exchange-correlation      = SLA PW PBX PBC ( 1  4  3  4 0 0)
     nstep                     =           50


     celldm(1)=   8.881713  celldm(2)=   0.000000  celldm(3)=   0.000000
     celldm(4)=   0.000000  celldm(5)=   0.000000  celldm(6)=   0.000000

     crystal axes: (cart. coord. in units of alat)
               a(1) = (   0.866025  -0.500000   0.000000 )  
               a(2) = (   0.000000   1.000000   0.000000 )  
               a(3) = (   0.000000   0.000000   0.723404 )  

     reciprocal axes: (cart. coord. in units 2 pi/alat)
               b(1) = (  1.154701  0.000000  0.000000 )  
               b(2) = (  0.577350  1.000000 -0.000000 )  
               b(3) = ( -0.000000  0.000000  1.382353 )  


     PseudoPot. # 1 for H  read from file:
     ./potentials/H.pbe-kjpaw_psl.1.0.0.UPF
     MD5 check sum: d81a744832360e4a8af0b0b5b123bc2a
     Pseudo is Projector augmented-wave, Zval =  1.0
     Generated using "atomic" code by A. Dal Corso v.6.3MaX
     Shape of augmentation charge: PSQ
     Using radial grid of  929 points,  2 beta functions with: 
                l(1) =   0
                l(2) =   0
     Q(r) pseudized with 0 coefficients 


     atomic species   valence    mass     pseudopotential
        H              1.00     1.00750     H ( 1.00)

     Starting magnetic structure 
     atomic species   magnetization
        H            1.000

     24 Sym. Ops., with inversion, found (12 have fractional translation)



   Cartesian axes

     site n.     atom                  positions (alat units)
         1           H   tau(   1) = (   0.5773503  -0.0000000   0.5425532  )
         2           H   tau(   2) = (   0.2886751   0.5000000   0.1808511  )

     number of k points=    40  Methfessel-Paxton smearing, width (Ry)=  0.0200
                       cart. coord. in units 2pi/alat
        k(    1) = (   0.0000000   0.0000000   0.0863971), wk =   0.0039062
        k(    2) = (   0.0000000   0.0000000   0.2591912), wk =   0.0039062
        k(    3) = (   0.0000000   0.0000000   0.4319853), wk =   0.0039062
        k(    4) = (   0.0000000   0.0000000   0.6047794), wk =   0.0039062
        k(    5) = (   0.0721688   0.1250000   0.0863971), wk =   0.0234375
        k(    6) = (   0.0721688   0.1250000   0.2591912), wk =   0.0234375
        k(    7) = (   0.0721688   0.1250000   0.4319853), wk =   0.0234375
        k(    8) = (   0.0721688   0.1250000   0.6047794), wk =   0.0234375
        k(    9) = (   0.1443376   0.2500000   0.0863971), wk =   0.0234375
        k(   10) = (   0.1443376   0.2500000   0.2591912), wk =   0.0234375
        k(   11) = (   0.1443376   0.2500000   0.4319853), wk =   0.0234375
        k(   12) = (   0.1443376   0.2500000   0.6047794), wk =   0.0234375
        k(   13) = (   0.2165064   0.3750000   0.0863971), wk =   0.0234375
        k(   14) = (   0.2165064   0.3750000   0.2591912), wk =   0.0234375
        k(   15) = (   0.2165064   0.3750000   0.4319853), wk =   0.0234375
        k(   16) = (   0.2165064   0.3750000   0.6047794), wk =   0.0234375
        k(   17) = (  -0.2886751  -0.5000000   0.0863971), wk =   0.0117188
        k(   18) = (  -0.2886751  -0.5000000   0.2591912), wk =   0.0117188
        k(   19) = (  -0.2886751  -0.5000000   0.4319853), wk =   0.0117188
        k(   20) = (  -0.2886751  -0.5000000   0.6047794), wk =   0.0117188
        k(   21) = (   0.2165064   0.1250000   0.0863971), wk =   0.0234375
        k(   22) = (   0.2165064   0.1250000   0.2591912), wk =   0.0234375
        k(   23) = (   0.2165064   0.1250000   0.4319853), wk =   0.0234375
        k(   24) = (   0.2165064   0.1250000   0.6047794), wk =   0.0234375
        k(   25) = (   0.2886751   0.2500000   0.0863971), wk =   0.0468750
        k(   26) = (   0.2886751   0.2500000   0.2591912), wk =   0.0468750
        k(   27) = (   0.2886751   0.2500000   0.4319853), wk =   0.0468750
        k(   28) = (   0.2886751   0.2500000   0.6047794), wk =   0.0468750
        k(   29) = (   0.3608439   0.3750000   0.0863971), wk =   0.0468750
        k(   30) = (   0.3608439   0.3750000   0.2591912), wk =   0.0468750
        k(   31) = (   0.3608439   0.3750000   0.4319853), wk =   0.0468750
        k(   32) = (   0.3608439   0.3750000   0.6047794), wk =   0.0468750
        k(   33) = (   0.4330127   0.2500000   0.0863971), wk =   0.0234375
        k(   34) = (   0.4330127   0.2500000   0.2591912), wk =   0.0234375
        k(   35) = (   0.4330127   0.2500000   0.4319853), wk =   0.0234375
        k(   36) = (   0.4330127   0.2500000   0.6047794), wk =   0.0234375
        k(   37) = (   0.5051815   0.3750000   0.0863971), wk =   0.0234375
        k(   38) = (   0.5051815   0.3750000   0.2591912), wk =   0.0234375
        k(   39) = (   0.5051815   0.3750000   0.4319853), wk =   0.0234375
        k(   40) = (   0.5051815   0.3750000   0.6047794), wk =   0.0234375

     Dense  grid:    24331 G-vectors     FFT dimensions: (  45,  45,  32)

     Smooth grid:    18489 G-vectors     FFT dimensions: (  40,  40,  30)

     Estimated max dynamical RAM per process >      21.56 MB

     Estimated total dynamical RAM >      43.13 MB
     Generating pointlists ...
     new r_m :   0.2810 (alat units)  2.4961 (a.u.) for type    1

     Initial potential from superposition of free atoms

     starting charge    1.99998, renormalised to    2.00000
     Starting wfcs are    2 randomized atomic wfcs +    3 random wfcs
     Checking if some PAW data can be deallocated... 

     total cpu time spent up to now is        1.5 secs

     Self-consistent Calculation

     iteration #  1     ecut=    46.00 Ry     beta= 0.70
     Davidson diagonalization with overlap
     ethr =  1.00E-02,  avg # of iterations =  6.9

     Threshold (ethr) on eigenvalues was too large:
     Diagonalizing with lowered threshold

     Davidson diagonalization with overlap
     ethr =  1.69E-04,  avg # of iterations =  2.1

     total cpu time spent up to now is        6.8 secs

     total energy              =      -1.99587251 Ry
     Harris-Foulkes estimate   =      -1.99665777 Ry
     estimated scf accuracy    <       0.00358036 Ry

     total magnetization       =     2.00 Bohr mag/cell
     absolute magnetization    =     2.00 Bohr mag/cell

     iteration #  2     ecut=    46.00 Ry     beta= 0.70
     Davidson diagonalization with overlap
     ethr =  1.79E-04,  avg # of iterations =  1.5

     total cpu time spent up to now is        8.3 secs

     total energy              =      -1.99586528 Ry
     Harris-Foulkes estimate   =      -1.99591591 Ry
     estimated scf accuracy    <       0.00020591 Ry

     total magnetization       =     2.00 Bohr mag/cell
     absolute magnetization    =     2.00 Bohr mag/cell

     iteration #  3     ecut=    46.00 Ry     beta= 0.70
     Davidson diagonalization with overlap
     ethr =  1.03E-05,  avg # of iterations =  3.3

     Magnetic moment per site:
     atom:    1    charge:    0.9112    magn:    0.9112    constr:    0.0000
     atom:    2    charge:    0.9112    magn:    0.9112    constr:    0.0000

     total cpu time spent up to now is       10.4 secs

     End of self-consistent calculation

 ------ SPIN UP ------------


          k = 0.0000 0.0000 0.0864 (  2305 PWs)   bands (ev):

    -8.0596  -5.7900   3.1734   4.7131   4.7136

          k = 0.0000 0.0000 0.2592 (  2318 PWs)   bands (ev):

    -7.8141  -5.8174   3.1812   5.1041   5.1633

          k = 0.0000 0.0000 0.4320 (  2348 PWs)   bands (ev):

    -7.3654  -5.9538   3.0784   3.6928   5.8756

          k = 0.0000 0.0000 0.6048 (  2342 PWs)   bands (ev):

    -6.8080  -6.2906   2.8907   2.9715   6.9745

          k = 0.0722 0.1250 0.0864 (  2308 PWs)   bands (ev):

    -7.9868  -5.8725   2.7712   4.2225   4.4476

          k = 0.0722 0.1250 0.2592 (  2318 PWs)   bands (ev):

    -7.7462  -5.8832   2.8721   4.4150   4.6169

          k = 0.0722 0.1250 0.4320 (  2323 PWs)   bands (ev):

    -7.3084  -5.9877   2.8898   3.4992   5.3983

          k = 0.0722 0.1250 0.6048 (  2339 PWs)   bands (ev):

    -6.7714  -6.2862   2.7556   2.8393   6.5399

          k = 0.1443 0.2500 0.0864 (  2302 PWs)   bands (ev):

    -7.7815  -6.1009   1.9451   3.6088   4.5701

          k = 0.1443 0.2500 0.2592 (  2313 PWs)   bands (ev):

    -7.5551  -6.0689   2.1531   4.0059   4.1696

          k = 0.1443 0.2500 0.4320 (  2325 PWs)   bands (ev):

    -7.1506  -6.0899   2.3812   3.2629   4.7962

          k = 0.1443 0.2500 0.6048 (  2314 PWs)   bands (ev):

    -6.6745  -6.2823   2.4167   2.6074   5.8297

          k = 0.2165 0.3750 0.0864 (  2312 PWs)   bands (ev):

    -7.4937  -6.4112   1.3198   3.2157   4.8890

          k = 0.2165 0.3750 0.2592 (  2311 PWs)   bands (ev):

    -7.2901  -6.3288   1.5603   3.6142   4.2499

          k = 0.2165 0.3750 0.4320 (  2304 PWs)   bands (ev):

    -6.9380  -6.2466   1.8861   3.2363   4.4086

          k = 0.2165 0.3750 0.6048 (  2303 PWs)   bands (ev):

    -6.5556  -6.2980   2.0861   2.4474   5.1878

          k =-0.2887-0.5000 0.0864 (  2300 PWs)   bands (ev):

    -7.3050  -6.6090   1.0980   3.0826   5.0614

          k =-0.2887-0.5000 0.2592 (  2310 PWs)   bands (ev):

    -7.1184  -6.4984   1.3450   3.4814   4.3431

          k =-0.2887-0.5000 0.4320 (  2308 PWs)   bands (ev):

    -6.8051  -6.3564   1.6957   3.2729   4.2770

          k =-0.2887-0.5000 0.6048 (  2316 PWs)   bands (ev):

    -6.4891  -6.3210   1.9545   2.3946   4.9516

          k = 0.2165 0.1250 0.0864 (  2301 PWs)   bands (ev):

    -7.8474  -6.0280   2.1199   3.9316   4.3759

          k = 0.2165 0.1250 0.2592 (  2316 PWs)   bands (ev):

    -7.6162  -6.0091   2.3454   3.8875   4.5291

          k = 0.2165 0.1250 0.4320 (  2323 PWs)   bands (ev):

    -7.2006  -6.0561   2.5809   3.2196   4.8159

          k = 0.2165 0.1250 0.6048 (  2320 PWs)   bands (ev):

    -6.7045  -6.2821   2.5583   2.6388   5.5560

          k = 0.2887 0.2500 0.0864 (  2300 PWs)   bands (ev):

    -7.5948  -6.3012   1.3819   3.6208   4.6065

          k = 0.2887 0.2500 0.2592 (  2313 PWs)   bands (ev):

    -7.3827  -6.2360   1.6808   3.6304   4.3547

          k = 0.2887 0.2500 0.4320 (  2317 PWs)   bands (ev):

    -7.0113  -6.1891   2.1132   3.0587   4.1865

          k = 0.2887 0.2500 0.6048 (  2313 PWs)   bands (ev):

    -6.5948  -6.2894   2.2800   2.4703   4.6391

          k = 0.3608 0.3750 0.0864 (  2306 PWs)   bands (ev):

    -7.3138  -6.5955   0.9557   3.4260   4.8750

          k = 0.3608 0.3750 0.2592 (  2304 PWs)   bands (ev):

    -7.1262  -6.4872   1.2745   3.5467   4.2694

          k = 0.3608 0.3750 0.4320 (  2313 PWs)   bands (ev):

    -6.8107  -6.3494   1.7751   3.1830   3.6814

          k = 0.3608 0.3750 0.6048 (  2313 PWs)   bands (ev):

    -6.4914  -6.3189   2.0784   2.4299   4.1054

          k = 0.4330 0.2500 0.0864 (  2308 PWs)   bands (ev):

    -7.3223  -6.5824   0.8368   3.8686   4.5699

          k = 0.4330 0.2500 0.2592 (  2311 PWs)   bands (ev):

    -7.1337  -6.4763   1.2089   3.6010   4.2221

          k = 0.4330 0.2500 0.4320 (  2315 PWs)   bands (ev):

    -6.8161  -6.3426   1.8836   2.9323   3.5695

          k = 0.4330 0.2500 0.6048 (  2319 PWs)   bands (ev):

    -6.4936  -6.3169   2.3035   2.3905   3.6685

          k = 0.5052 0.3750 0.0864 (  2301 PWs)   bands (ev):

    -7.1011  -6.8058   0.6289   3.9783   4.5680

          k = 0.5052 0.3750 0.2592 (  2304 PWs)   bands (ev):

    -6.9341  -6.6712   1.0208   3.7057   4.0468

          k = 0.5052 0.3750 0.4320 (  2315 PWs)   bands (ev):

    -6.6655  -6.4754   1.7737   3.0929   3.1685

          k = 0.5052 0.3750 0.6048 (  2322 PWs)   bands (ev):

    -6.4254  -6.3542   2.3166   2.4820   3.2208

 ------ SPIN DOWN ----------


          k = 0.0000 0.0000 0.0864 (  2305 PWs)   bands (ev):

     5.9492  13.8678  13.8678  16.3073  17.1960

          k = 0.0000 0.0000 0.2592 (  2318 PWs)   bands (ev):

     6.3544  14.2736  14.2736  14.4273  16.6889

          k = 0.0000 0.0000 0.4320 (  2348 PWs)   bands (ev):

     7.1646  12.0159  15.0848  15.0849  17.4407

          k = 0.0000 0.0000 0.6048 (  2342 PWs)   bands (ev):

     8.3793   9.9973  16.3003  16.3004  17.9120

          k = 0.0722 0.1250 0.0864 (  2308 PWs)   bands (ev):

     6.0341  13.1056  13.6921  16.7790  17.2560

          k = 0.0722 0.1250 0.2592 (  2318 PWs)   bands (ev):

     6.4394  13.5074  14.0979  14.5117  17.2112

          k = 0.0722 0.1250 0.4320 (  2323 PWs)   bands (ev):

     7.2498  12.1015  14.3123  14.9092  17.9208

          k = 0.0722 0.1250 0.6048 (  2339 PWs)   bands (ev):

     8.4647  10.0830  15.5104  16.1249  17.0734

          k = 0.1443 0.2500 0.0864 (  2302 PWs)   bands (ev):

     6.2641  11.9275  13.3515  16.3485  17.6423

          k = 0.1443 0.2500 0.2592 (  2313 PWs)   bands (ev):

     6.6696  12.3271  13.7573  14.7446  16.7990

          k = 0.1443 0.2500 0.4320 (  2325 PWs)   bands (ev):

     7.4805  12.3307  13.1352  14.5687  17.1879

          k = 0.1443 0.2500 0.6048 (  2314 PWs)   bands (ev):

     8.6962  10.3154  14.3195  15.7851  15.8616

          k = 0.2165 0.3750 0.0864 (  2312 PWs)   bands (ev):

     6.5445  11.0092  13.0815  15.9544  17.9219

          k = 0.2165 0.3750 0.2592 (  2311 PWs)   bands (ev):

     6.9505  11.4079  13.4873  15.0469  16.3232

          k = 0.2165 0.3750 0.4320 (  2304 PWs)   bands (ev):

     7.7622  12.1853  12.6526  14.2988  16.4317

          k = 0.2165 0.3750 0.6048 (  2303 PWs)   bands (ev):

     8.9793  10.6003  13.3974  14.9338  15.5159

          k =-0.2887-0.5000 0.0864 (  2300 PWs)   bands (ev):

     6.6835  10.6503  12.9833  15.8152  18.0550

          k =-0.2887-0.5000 0.2592 (  2310 PWs)   bands (ev):

     7.0898  11.0486  13.3891  15.2171  16.1207

          k =-0.2887-0.5000 0.4320 (  2308 PWs)   bands (ev):

     7.9021  11.8351  12.7909  14.2005  16.1171

          k =-0.2887-0.5000 0.6048 (  2316 PWs)   bands (ev):

     9.1202  10.7422  13.0374  14.5711  15.4173

          k = 0.2165 0.1250 0.0864 (  2301 PWs)   bands (ev):

     6.1923  12.3058  13.2739  17.1064  17.4652

          k = 0.2165 0.1250 0.2592 (  2316 PWs)   bands (ev):

     6.5977  12.7069  13.6718  14.6840  17.7405

          k = 0.2165 0.1250 0.4320 (  2323 PWs)   bands (ev):

     7.4084  12.2609  13.5069  14.4917  17.8887

          k = 0.2165 0.1250 0.6048 (  2320 PWs)   bands (ev):

     8.6238  10.2427  14.6968  15.6669  16.3117

          k = 0.2887 0.2500 0.0864 (  2300 PWs)   bands (ev):

     6.4534  11.4157  12.7709  16.8499  17.8471

          k = 0.2887 0.2500 0.2592 (  2313 PWs)   bands (ev):

     6.8592  11.8152  13.1696  14.9612  17.2513

          k = 0.2887 0.2500 0.4320 (  2317 PWs)   bands (ev):

     7.6706  12.4986  12.6435  13.9830  17.1194

          k = 0.2887 0.2500 0.6048 (  2313 PWs)   bands (ev):

     8.8872  10.5077  13.7975  15.0241  15.5693

          k = 0.3608 0.3750 0.0864 (  2306 PWs)   bands (ev):

     6.6779  10.8231  12.5000  16.6249  18.0530

          k = 0.3608 0.3750 0.2592 (  2304 PWs)   bands (ev):

     7.0841  11.2216  12.9003  15.2066  16.9263

          k = 0.3608 0.3750 0.4320 (  2313 PWs)   bands (ev):

     7.8964  12.0085  12.7794  13.6969  16.5725

          k = 0.3608 0.3750 0.6048 (  2313 PWs)   bands (ev):

     9.1145  10.7371  13.2016  14.5488  15.1810

          k = 0.4330 0.2500 0.0864 (  2308 PWs)   bands (ev):

     6.6723  11.0961  11.9982  17.8816  18.2221

          k = 0.4330 0.2500 0.2592 (  2311 PWs)   bands (ev):

     7.0784  11.4951  12.3958  15.1998  18.2325

          k = 0.4330 0.2500 0.4320 (  2315 PWs)   bands (ev):

     7.8907  12.2894  12.7430  13.2113  17.0273

          k = 0.4330 0.2500 0.6048 (  2319 PWs)   bands (ev):

     9.1089  10.7321  13.4578  14.2633  15.2710

          k = 0.5052 0.3750 0.0864 (  2301 PWs)   bands (ev):

     6.7746  11.0040  11.6648  18.1503  18.1711

          k = 0.5052 0.3750 0.2592 (  2304 PWs)   bands (ev):

     7.1810  11.4023  12.0630  15.3088  18.3131

          k = 0.5052 0.3750 0.4320 (  2315 PWs)   bands (ev):

     7.9938  12.1921  12.8517  12.8739  16.9682

          k = 0.5052 0.3750 0.6048 (  2322 PWs)   bands (ev):

     9.2129  10.8380  13.3539  13.9380  15.1769

     the Fermi energy is    -1.7385 ev

!    total energy              =      -1.99587526 Ry
     Harris-Foulkes estimate   =      -1.99587451 Ry
     estimated scf accuracy    <       0.00000048 Ry

     total all-electron energy =        -1.995867 Ry

     The total energy is the sum of the following terms:

     one-electron contribution =      -0.26381917 Ry
     hartree contribution      =       0.43715522 Ry
     xc contribution           =      -1.24692537 Ry
     ewald contribution        =      -0.92188003 Ry
     one-center paw contrib.   =      -0.00040591 Ry
     smearing contrib. (-TS)   =       0.00000000 Ry

     total magnetization       =     2.00 Bohr mag/cell
     absolute magnetization    =     2.00 Bohr mag/cell

     convergence has been achieved in   3 iterations

     Forces acting on atoms (cartesian axes, Ry/au):

     atom    1 type  1   force =     0.00000000    0.00000000    0.00000000
     atom    2 type  1   force =     0.00000000    0.00000000    0.00000000

     Total force =     0.000000     Total SCF correction =     0.000000


     Computing stress (Cartesian axis) and pressure

          total   stress  (Ry/bohr**3)                   (kbar)     P=   24.64
   0.00016526   0.00000000   0.00000000         24.31      0.00      0.00
   0.00000000   0.00016526   0.00000000          0.00     24.31      0.00
   0.00000000   0.00000000   0.00017201          0.00      0.00     25.30


     BFGS Geometry Optimization

     number of scf cycles    =   1
     number of bfgs steps    =   0

     enthalpy new            =      -1.9958752639 Ry

     new trust radius        =       0.0180191073 bohr
     new conv_thr            =       0.0000010000 Ry

     new unit-cell volume =    444.47421 a.u.^3 (    65.86428 Ang^3 )
     density =      0.05080 g/cm^3

CELL_PARAMETERS (alat=  8.88171282)
   0.869603289  -0.502065693   0.000000000
   0.000000000   1.004131386   0.000000000
   0.000000000   0.000000000   0.726515136

ATOMIC_POSITIONS (crystal)
H        0.666666667   0.333333333   0.750000000
H        0.333333333   0.666666667   0.250000000



     Writing output data file pw.save/
     NEW-OLD atomic charge density approx. for the potential
     extrapolated charge    2.02492, renormalised to    2.00000

     total cpu time spent up to now is       12.1 secs

     Self-consistent Calculation

     iteration #  1     ecut=    46.00 Ry     beta= 0.70
     Davidson diagonalization with overlap
     ethr =  1.00E-06,  avg # of iterations =  2.4

     total cpu time spent up to now is       13.9 secs

     total energy              =      -1.99603517 Ry
     Harris-Foulkes estimate   =      -2.00495229 Ry
     estimated scf accuracy    <       0.00000218 Ry

     total magnetization       =     2.00 Bohr mag/cell
     absolute magnetization    =     2.00 Bohr mag/cell

     iteration #  2     ecut=    46.00 Ry     beta= 0.70
     Davidson diagonalization with overlap
     ethr =  1.09E-07,  avg # of iterations =  2.0

     total cpu time spent up to now is       15.6 secs

     total energy              =      -1.99604730 Ry
     Harris-Foulkes estimate   =      -1.99604781 Ry
     estimated scf accuracy    <       0.00000361 Ry

     total magnetization       =     2.00 Bohr mag/cell
     absolute magnetization    =     2.00 Bohr mag/cell

     iteration #  3     ecut=    46.00 Ry     beta= 0.70
     Davidson diagonalization with overlap
     ethr =  1.09E-07,  avg # of iterations =  1.0

     total cpu time spent up to now is       16.9 secs

     total energy              =      -1.99604690 Ry
     Harris-Foulkes estimate   =      -1.99604732 Ry
     estimated scf accuracy    <       0.00000157 Ry

     total magnetization       =     2.00 Bohr mag/cell
     absolute magnetization    =     2.00 Bohr mag/cell

     iteration #  4     ecut=    46.00 Ry     beta= 0.70
     Davidson diagonalization with overlap
     ethr =  7.87E-08,  avg # of iterations =  1.0

     Magnetic moment per site:
     atom:    1    charge:    0.9123    magn:    0.9123    constr:    0.0000
     atom:    2    charge:    0.9123    magn:    0.9123    constr:    0.0000

     total cpu time spent up to now is       18.3 secs

     End of self-consistent calculation

 ------ SPIN UP ------------


          k = 0.0000 0.0000 0.0860 (  2305 PWs)   bands (ev):

    -8.0489  -5.8221   3.1126   4.6628   4.6628

          k = 0.0000 0.0000 0.2581 (  2318 PWs)   bands (ev):

    -7.8074  -5.8494   3.1199   5.0503   5.0503

          k = 0.0000 0.0000 0.4301 (  2348 PWs)   bands (ev):

    -7.3664  -5.9831   3.0201   3.6504   5.8148

          k = 0.0000 0.0000 0.6022 (  2342 PWs)   bands (ev):

    -6.8194  -6.3127   2.8410   2.9296   6.9024

          k = 0.0719 0.1245 0.0860 (  2308 PWs)   bands (ev):

    -7.9773  -5.9029   2.7205   4.1762   4.3942

          k = 0.0719 0.1245 0.2581 (  2318 PWs)   bands (ev):

    -7.7406  -5.9137   2.8188   4.3647   4.5669

          k = 0.0719 0.1245 0.4301 (  2323 PWs)   bands (ev):

    -7.3104  -6.0164   2.8364   3.4590   5.3417

          k = 0.0719 0.1245 0.6022 (  2339 PWs)   bands (ev):

    -6.7837  -6.3085   2.7094   2.7999   6.4728

          k = 0.1437 0.2490 0.0860 (  2302 PWs)   bands (ev):

    -7.7755  -6.1264   1.9092   3.5679   4.5066

          k = 0.1437 0.2490 0.2581 (  2313 PWs)   bands (ev):

    -7.5530  -6.0955   2.1146   3.9615   4.1145

          k = 0.1437 0.2490 0.4301 (  2325 PWs)   bands (ev):

    -7.1558  -6.1166   2.3410   3.2217   4.7449

          k = 0.1437 0.2490 0.6022 (  2314 PWs)   bands (ev):

    -6.6890  -6.3051   2.3803   2.5709   5.7690

          k = 0.2156 0.3735 0.0860 (  2312 PWs)   bands (ev):

    -7.4928  -6.4301   1.2920   3.1782   4.8154

          k = 0.2156 0.3735 0.2581 (  2311 PWs)   bands (ev):

    -7.2928  -6.3498   1.5307   3.5731   4.1886

          k = 0.2156 0.3735 0.4301 (  2304 PWs)   bands (ev):

    -6.9474  -6.2701   1.8553   3.1921   4.3605

          k = 0.2156 0.3735 0.6022 (  2303 PWs)   bands (ev):

    -6.5729  -6.3208   2.0571   2.4144   5.1326

          k =-0.2875-0.4979 0.0860 (  2300 PWs)   bands (ev):

    -7.3076  -6.6238   1.0729   3.0461   4.9825

          k =-0.2875-0.4979 0.2581 (  2310 PWs)   bands (ev):

    -7.1245  -6.5158   1.3183   3.4415   4.2779

          k =-0.2875-0.4979 0.4301 (  2308 PWs)   bands (ev):

    -6.8174  -6.3774   1.6682   3.2268   4.2301

          k =-0.2875-0.4979 0.6022 (  2316 PWs)   bands (ev):

    -6.5081  -6.3434   1.9282   2.3632   4.8985

          k = 0.2156 0.1245 0.0860 (  2301 PWs)   bands (ev):

    -7.8402  -6.0550   2.0823   3.8841   4.3188

          k = 0.2156 0.1245 0.2581 (  2316 PWs)   bands (ev):

    -7.6130  -6.0369   2.3039   3.8422   4.4715

          k = 0.2156 0.1245 0.4301 (  2323 PWs)   bands (ev):

    -7.2048  -6.0835   2.5348   3.1827   4.7598

          k = 0.2156 0.1245 0.6022 (  2320 PWs)   bands (ev):

    -6.7183  -6.3048   2.5166   2.6038   5.4986

          k = 0.2875 0.2490 0.0860 (  2300 PWs)   bands (ev):

    -7.5920  -6.3225   1.3554   3.5748   4.5402

          k = 0.2875 0.2490 0.2581 (  2313 PWs)   bands (ev):

    -7.3837  -6.2591   1.6509   3.5852   4.2939

          k = 0.2875 0.2490 0.4301 (  2317 PWs)   bands (ev):

    -7.0192  -6.2138   2.0784   3.0209   4.1361

          k = 0.2875 0.2490 0.6022 (  2313 PWs)   bands (ev):

    -6.6113  -6.3123   2.2469   2.4373   4.5899

          k = 0.3594 0.3735 0.0860 (  2306 PWs)   bands (ev):

    -7.3161  -6.6108   0.9346   3.3813   4.8002

          k = 0.3594 0.3735 0.2581 (  2304 PWs)   bands (ev):

    -7.1320  -6.5050   1.2505   3.5019   4.2060

          k = 0.3594 0.3735 0.4301 (  2313 PWs)   bands (ev):

    -6.8228  -6.3708   1.7471   3.1400   3.6376

          k = 0.3594 0.3735 0.6022 (  2313 PWs)   bands (ev):

    -6.5103  -6.3414   2.0507   2.3980   4.0607

          k = 0.4312 0.2490 0.0860 (  2308 PWs)   bands (ev):

    -7.3244  -6.5981   0.8188   3.8138   4.5020

          k = 0.4312 0.2490 0.2581 (  2311 PWs)   bands (ev):

    -7.1393  -6.4945   1.1874   3.5517   4.1602

          k = 0.4312 0.2490 0.4301 (  2315 PWs)   bands (ev):

    -6.8280  -6.3642   1.8550   2.8953   3.5223

          k = 0.4312 0.2490 0.6022 (  2319 PWs)   bands (ev):

    -6.5124  -6.3395   2.2714   2.3608   3.6278

          k = 0.5031 0.3735 0.0860 (  2301 PWs)   bands (ev):

    -7.1072  -6.8172   0.6138   3.9205   4.4981

          k = 0.5031 0.3735 0.2581 (  2304 PWs)   bands (ev):

    -6.9436  -6.6855   1.0024   3.6534   3.9868

          k = 0.5031 0.3735 0.4301 (  2315 PWs)   bands (ev):

    -6.6806  -6.4943   1.7485   3.0531   3.1245

          k = 0.5031 0.3735 0.6022 (  2322 PWs)   bands (ev):

    -6.4458  -6.3761   2.2874   2.4503   3.1841

 ------ SPIN DOWN ----------


          k = 0.0000 0.0000 0.0860 (  2305 PWs)   bands (ev):

     5.8776  13.7204  13.7204  16.1366  17.0193

          k = 0.0000 0.0000 0.2581 (  2318 PWs)   bands (ev):

     6.2793  14.1226  14.1226  14.2795  16.5137

          k = 0.0000 0.0000 0.4301 (  2348 PWs)   bands (ev):

     7.0824  11.8905  14.9268  14.9268  17.2565

          k = 0.0000 0.0000 0.6022 (  2342 PWs)   bands (ev):

     8.2864   9.8900  16.1316  16.1316  17.7283

          k = 0.0719 0.1245 0.0860 (  2308 PWs)   bands (ev):

     5.9625  12.9611  13.5443  16.5932  17.0773

          k = 0.0719 0.1245 0.2581 (  2318 PWs)   bands (ev):

     6.3642  13.3592  13.9466  14.3636  17.0245

          k = 0.0719 0.1245 0.4301 (  2323 PWs)   bands (ev):

     7.1675  11.9760  14.1568  14.7508  17.7225

          k = 0.0719 0.1245 0.6022 (  2339 PWs)   bands (ev):

     8.3717   9.9756  15.3436  15.9559  16.8892

          k = 0.1437 0.2490 0.0860 (  2302 PWs)   bands (ev):

     6.1924  11.7882  13.2039  16.1567  17.4717

          k = 0.1437 0.2490 0.2581 (  2313 PWs)   bands (ev):

     6.5944  12.1840  13.6061  14.5963  16.6065

          k = 0.1437 0.2490 0.4301 (  2325 PWs)   bands (ev):

     7.3982  12.2049  12.9853  14.4105  16.9825

          k = 0.1437 0.2490 0.6022 (  2314 PWs)   bands (ev):

     8.6032  10.2082  14.1575  15.6162  15.6822

          k = 0.2156 0.3735 0.0860 (  2312 PWs)   bands (ev):

     6.4735  10.8730  12.9346  15.7666  17.7530

          k = 0.2156 0.3735 0.2581 (  2311 PWs)   bands (ev):

     6.8760  11.2679  13.3369  14.9001  16.1322

          k = 0.2156 0.3735 0.4301 (  2304 PWs)   bands (ev):

     7.6807  12.0379  12.5286  14.1413  16.2285

          k = 0.2156 0.3735 0.6022 (  2303 PWs)   bands (ev):

     8.8872  10.4939  13.2384  14.7573  15.3474

          k =-0.2875-0.4979 0.0860 (  2300 PWs)   bands (ev):

     6.6133  10.5147  12.8367  15.6290  17.8866

          k =-0.2875-0.4979 0.2581 (  2310 PWs)   bands (ev):

     7.0160  10.9092  13.2390  15.0736  15.9275

          k =-0.2875-0.4979 0.4301 (  2308 PWs)   bands (ev):

     7.8213  11.6879  12.6686  14.0434  15.9150

          k =-0.2875-0.4979 0.6022 (  2316 PWs)   bands (ev):

     9.0289  10.6367  12.8790  14.3950  15.2496

          k = 0.2156 0.1245 0.0860 (  2301 PWs)   bands (ev):

     6.1205  12.1653  13.1256  16.9111  17.2753

          k = 0.2156 0.1245 0.2581 (  2316 PWs)   bands (ev):

     6.5224  12.5627  13.5195  14.5366  17.5391

          k = 0.2156 0.1245 0.4301 (  2323 PWs)   bands (ev):

     7.3261  12.1353  13.3552  14.3329  17.6814

          k = 0.2156 0.1245 0.6022 (  2320 PWs)   bands (ev):

     8.5308  10.1354  14.5333  15.4950  16.1347

          k = 0.2875 0.2490 0.0860 (  2300 PWs)   bands (ev):

     6.3821  11.2784  12.6238  16.6569  17.6764

          k = 0.2875 0.2490 0.2581 (  2313 PWs)   bands (ev):

     6.7843  11.6742  13.0186  14.8150  17.0549

          k = 0.2875 0.2490 0.4301 (  2317 PWs)   bands (ev):

     7.5887  12.3667  12.5018  13.8253  16.9190

          k = 0.2875 0.2490 0.6022 (  2313 PWs)   bands (ev):

     8.7947  10.4010  13.6370  14.8486  15.4009

          k = 0.3594 0.3735 0.0860 (  2306 PWs)   bands (ev):

     6.6075  10.6868  12.3542  16.4347  17.8845

          k = 0.3594 0.3735 0.2581 (  2304 PWs)   bands (ev):

     7.0102  11.0815  12.7508  15.0626  16.7294

          k = 0.3594 0.3735 0.4301 (  2313 PWs)   bands (ev):

     7.8155  11.8606  12.6566  13.5397  16.3745

          k = 0.3594 0.3735 0.6022 (  2313 PWs)   bands (ev):

     9.0231  10.6316  13.0420  14.3714  15.0171

          k = 0.4312 0.2490 0.0860 (  2308 PWs)   bands (ev):

     6.6018  10.9590  11.8540  17.6934  18.0424

          k = 0.4312 0.2490 0.2581 (  2311 PWs)   bands (ev):

     7.0045  11.3543  12.2477  15.0556  18.0235

          k = 0.4312 0.2490 0.4301 (  2315 PWs)   bands (ev):

     7.8097  12.1407  12.6171  13.0583  16.8326

          k = 0.4312 0.2490 0.6022 (  2319 PWs)   bands (ev):

     9.0174  10.6265  13.2963  14.0913  15.1039

          k = 0.5031 0.3735 0.0860 (  2301 PWs)   bands (ev):

     6.7047  10.8660  11.5227  17.9702  17.9822

          k = 0.5031 0.3735 0.2581 (  2304 PWs)   bands (ev):

     7.1077  11.2604  11.9171  15.1657  18.1018

          k = 0.5031 0.3735 0.4301 (  2315 PWs)   bands (ev):

     7.9135  12.0422  12.6978  12.7518  16.7738

          k = 0.5031 0.3735 0.6022 (  2322 PWs)   bands (ev):

     9.1221  10.7332  13.1913  13.7681  15.0092

     the Fermi energy is    -1.7833 ev

!    total energy              =      -1.99604694 Ry
     Harris-Foulkes estimate   =      -1.99604695 Ry
     estimated scf accuracy    <       0.00000003 Ry

     total all-electron energy =        -1.996038 Ry

     The total energy is the sum of the following terms:

     one-electron contribution =      -0.27040275 Ry
     hartree contribution      =       0.43928101 Ry
     xc contribution           =      -1.24647064 Ry
     ewald contribution        =      -0.91804859 Ry
     one-center paw contrib.   =      -0.00040597 Ry
     smearing contrib. (-TS)   =       0.00000000 Ry

     total magnetization       =     2.00 Bohr mag/cell
     absolute magnetization    =     2.00 Bohr mag/cell

     convergence has been achieved in   4 iterations

     Forces acting on atoms (cartesian axes, Ry/au):

     atom    1 type  1   force =     0.00000000    0.00000000    0.00000000
     atom    2 type  1   force =    -0.00000000   -0.00000000    0.00000000

     Total force =     0.000000     Total SCF correction =     0.000000


     Computing stress (Cartesian axis) and pressure

          total   stress  (Ry/bohr**3)                   (kbar)     P=   24.16
   0.00016194  -0.00000000   0.00000000         23.82     -0.00      0.00
  -0.00000000   0.00016194   0.00000000         -0.00     23.82      0.00
   0.00000000   0.00000000   0.00016873          0.00      0.00     24.82


     number of scf cycles    =   2
     number of bfgs steps    =   1

     enthalpy old            =      -1.9958752639 Ry
     enthalpy new            =      -1.9960469447 Ry

     CASE: enthalpy_new < enthalpy_old


     WARNING: bfgs curvature condition failed, Theta= 0.809
     new trust radius        =       0.0198602492 bohr
     new conv_thr            =       0.0000000100 Ry

     new unit-cell volume =    450.61841 a.u.^3 (    66.77476 Ang^3 )
     density =      0.05011 g/cm^3

CELL_PARAMETERS (alat=  8.88171282)
   0.873538338  -0.504337594   0.000000000
   0.000000000   1.008675189   0.000000000
   0.000000000   0.000000000   0.729937105

ATOMIC_POSITIONS (crystal)
H        0.666666667   0.333333333   0.750000000
H        0.333333333   0.666666667   0.250000000



     Writing output data file pw.save/
     NEW-OLD atomic charge density approx. for the potential
     extrapolated charge    2.02727, renormalised to    2.00000

     total cpu time spent up to now is       19.8 secs

     Self-consistent Calculation

     iteration #  1     ecut=    46.00 Ry     beta= 0.70
     Davidson diagonalization with overlap
     ethr =  1.00E-06,  avg # of iterations =  2.0

     total cpu time spent up to now is       21.6 secs

     total energy              =      -1.99621254 Ry
     Harris-Foulkes estimate   =      -2.00589803 Ry
     estimated scf accuracy    <       0.00000271 Ry

     total magnetization       =     2.00 Bohr mag/cell
     absolute magnetization    =     2.00 Bohr mag/cell

     iteration #  2     ecut=    46.00 Ry     beta= 0.70
     Davidson diagonalization with overlap
     ethr =  1.35E-07,  avg # of iterations =  2.0

     total cpu time spent up to now is       23.3 secs

     total energy              =      -1.99622723 Ry
     Harris-Foulkes estimate   =      -1.99622784 Ry
     estimated scf accuracy    <       0.00000436 Ry

     total magnetization       =     2.00 Bohr mag/cell
     absolute magnetization    =     2.00 Bohr mag/cell

     iteration #  3     ecut=    46.00 Ry     beta= 0.70
     Davidson diagonalization with overlap
     ethr =  1.35E-07,  avg # of iterations =  1.0

     total cpu time spent up to now is       24.7 secs

     total energy              =      -1.99622674 Ry
     Harris-Foulkes estimate   =      -1.99622724 Ry
     estimated scf accuracy    <       0.00000188 Ry

     total magnetization       =     2.00 Bohr mag/cell
     absolute magnetization    =     2.00 Bohr mag/cell

     iteration #  4     ecut=    46.00 Ry     beta= 0.70
     Davidson diagonalization with overlap
     ethr =  9.42E-08,  avg # of iterations =  1.0

     total cpu time spent up to now is       26.1 secs

     total energy              =      -1.99622681 Ry
     Harris-Foulkes estimate   =      -1.99622681 Ry
     estimated scf accuracy    <       0.00000003 Ry

     total magnetization       =     2.00 Bohr mag/cell
     absolute magnetization    =     2.00 Bohr mag/cell

     iteration #  5     ecut=    46.00 Ry     beta= 0.70
     Davidson diagonalization with overlap
     ethr =  1.50E-09,  avg # of iterations =  1.0

     total cpu time spent up to now is       27.4 secs

     total energy              =      -1.99622680 Ry
     Harris-Foulkes estimate   =      -1.99622681 Ry
     estimated scf accuracy    <       0.00000001 Ry

     total magnetization       =     2.00 Bohr mag/cell
     absolute magnetization    =     2.00 Bohr mag/cell

     iteration #  6     ecut=    46.00 Ry     beta= 0.70
     Davidson diagonalization with overlap
     ethr =  5.54E-10,  avg # of iterations =  1.0

     Magnetic moment per site:
     atom:    1    charge:    0.9135    magn:    0.9135    constr:    0.0000
     atom:    2    charge:    0.9135    magn:    0.9135    constr:    0.0000

     total cpu time spent up to now is       28.8 secs

     End of self-consistent calculation

 ------ SPIN UP ------------


          k = 0.0000 0.0000 0.0856 (  2305 PWs)   bands (ev):

    -8.0359  -5.8547   3.0447   4.6084   4.6084

          k = 0.0000 0.0000 0.2569 (  2318 PWs)   bands (ev):

    -7.7987  -5.8816   3.0517   4.9921   4.9921

          k = 0.0000 0.0000 0.4281 (  2348 PWs)   bands (ev):

    -7.3659  -6.0126   2.9556   3.6029   5.7491

          k = 0.0000 0.0000 0.5994 (  2342 PWs)   bands (ev):

    -6.8300  -6.3345   2.7858   2.8828   6.8258

          k = 0.0715 0.1239 0.0856 (  2308 PWs)   bands (ev):

    -7.9657  -5.9336   2.6638   4.1264   4.3367

          k = 0.0715 0.1239 0.2569 (  2318 PWs)   bands (ev):

    -7.7332  -5.9445   2.7594   4.3099   4.5134

          k = 0.0715 0.1239 0.4281 (  2323 PWs)   bands (ev):

    -7.3111  -6.0452   2.7771   3.4142   5.2807

          k = 0.0715 0.1239 0.5994 (  2339 PWs)   bands (ev):

    -6.7951  -6.3306   2.6580   2.7559   6.4006

          k = 0.1431 0.2478 0.0856 (  2302 PWs)   bands (ev):

    -7.7675  -6.1519   1.8689   3.5238   4.4374

          k = 0.1431 0.2478 0.2569 (  2313 PWs)   bands (ev):

    -7.5491  -6.1221   2.0716   3.9136   4.0544

          k = 0.1431 0.2478 0.4281 (  2325 PWs)   bands (ev):

    -7.1597  -6.1433   2.2960   3.1759   4.6895

          k = 0.1431 0.2478 0.5994 (  2314 PWs)   bands (ev):

    -6.7028  -6.3277   2.3393   2.5303   5.7019

          k = 0.2146 0.3718 0.0856 (  2312 PWs)   bands (ev):

    -7.4902  -6.4487   1.2608   3.1376   4.7353

          k = 0.2146 0.3718 0.2569 (  2311 PWs)   bands (ev):

    -7.2941  -6.3706   1.4975   3.5288   4.1218

          k = 0.2146 0.3718 0.4281 (  2304 PWs)   bands (ev):

    -6.9559  -6.2933   1.8210   3.1432   4.3087

          k = 0.2146 0.3718 0.5994 (  2303 PWs)   bands (ev):

    -6.5897  -6.3434   2.0245   2.3775   5.0711

          k =-0.2862-0.4957 0.0856 (  2300 PWs)   bands (ev):

    -7.3088  -6.6380   1.0445   3.0068   4.8968

          k =-0.2862-0.4957 0.2569 (  2310 PWs)   bands (ev):

    -7.1294  -6.5328   1.2882   3.3984   4.2068

          k =-0.2862-0.4957 0.4281 (  2308 PWs)   bands (ev):

    -6.8288  -6.3982   1.6372   3.1760   4.1795

          k =-0.2862-0.4957 0.5994 (  2316 PWs)   bands (ev):

    -6.5265  -6.3656   1.8987   2.3280   4.8392

          k = 0.2146 0.1239 0.0856 (  2301 PWs)   bands (ev):

    -7.8311  -6.0821   2.0401   3.8331   4.2566

          k = 0.2146 0.1239 0.2569 (  2316 PWs)   bands (ev):

    -7.6080  -6.0649   2.2575   3.7929   4.4090

          k = 0.2146 0.1239 0.4281 (  2323 PWs)   bands (ev):

    -7.2077  -6.1108   2.4836   3.1417   4.7002

          k = 0.2146 0.1239 0.5994 (  2320 PWs)   bands (ev):

    -6.7314  -6.3273   2.4703   2.5646   5.4361

          k = 0.2862 0.2478 0.0856 (  2300 PWs)   bands (ev):

    -7.5875  -6.3436   1.3254   3.5251   4.4680

          k = 0.2862 0.2478 0.2569 (  2313 PWs)   bands (ev):

    -7.3832  -6.2820   1.6173   3.5362   4.2278

          k = 0.2862 0.2478 0.4281 (  2317 PWs)   bands (ev):

    -7.0261  -6.2384   2.0396   2.9790   4.0810

          k = 0.2862 0.2478 0.5994 (  2313 PWs)   bands (ev):

    -6.6270  -6.3350   2.2098   2.4004   4.5358

          k = 0.3577 0.3718 0.0856 (  2306 PWs)   bands (ev):

    -7.3170  -6.6256   0.9106   3.3332   4.7189

          k = 0.3577 0.3718 0.2569 (  2304 PWs)   bands (ev):

    -7.1366  -6.5224   1.2234   3.4534   4.1369

          k = 0.3577 0.3718 0.4281 (  2313 PWs)   bands (ev):

    -6.8340  -6.3918   1.7158   3.0926   3.5896

          k = 0.3577 0.3718 0.5994 (  2313 PWs)   bands (ev):

    -6.5286  -6.3636   2.0195   2.3624   4.0112

          k = 0.4293 0.2478 0.0856 (  2308 PWs)   bands (ev):

    -7.3250  -6.6134   0.7980   3.7547   4.4283

          k = 0.4293 0.2478 0.2569 (  2311 PWs)   bands (ev):

    -7.1437  -6.5123   1.1628   3.4981   4.0929

          k = 0.4293 0.2478 0.4281 (  2315 PWs)   bands (ev):

    -6.8391  -6.3854   1.8230   2.8544   3.4706

          k = 0.4293 0.2478 0.5994 (  2319 PWs)   bands (ev):

    -6.5307  -6.3618   2.2355   2.3276   3.5827

          k = 0.5008 0.3718 0.0856 (  2301 PWs)   bands (ev):

    -7.1122  -6.8279   0.5964   3.8581   4.4225

          k = 0.5008 0.3718 0.2569 (  2304 PWs)   bands (ev):

    -6.9520  -6.6992   0.9812   3.5966   3.9214

          k = 0.5008 0.3718 0.4281 (  2315 PWs)   bands (ev):

    -6.6949  -6.5126   1.7200   3.0094   3.0762

          k = 0.5008 0.3718 0.5994 (  2322 PWs)   bands (ev):

    -6.4657  -6.3977   2.2545   2.4150   3.1431

 ------ SPIN DOWN ----------


          k = 0.0000 0.0000 0.0856 (  2305 PWs)   bands (ev):

     5.7781  13.5441  13.5441  15.9447  16.8120

          k = 0.0000 0.0000 0.2569 (  2318 PWs)   bands (ev):

     6.1760  13.9426  13.9426  14.0998  16.3178

          k = 0.0000 0.0000 0.4281 (  2348 PWs)   bands (ev):

     6.9715  11.7339  14.7392  14.7392  17.0526

          k = 0.0000 0.0000 0.5994 (  2342 PWs)   bands (ev):

     8.1641   9.7526  15.9325  15.9325  17.5136

          k = 0.0715 0.1239 0.0856 (  2308 PWs)   bands (ev):

     5.8624  12.7916  13.3690  16.3902  16.8708

          k = 0.0715 0.1239 0.2569 (  2318 PWs)   bands (ev):

     6.2604  13.1860  13.7675  14.1834  16.8193

          k = 0.0715 0.1239 0.4281 (  2323 PWs)   bands (ev):

     7.0561  11.8189  13.9759  14.5641  17.5079

          k = 0.0715 0.1239 0.5994 (  2339 PWs)   bands (ev):

     8.2489   9.8376  15.1512  15.7579  16.6807

          k = 0.1431 0.2478 0.0856 (  2302 PWs)   bands (ev):

     6.0909  11.6283  13.0308  15.9539  17.2642

          k = 0.1431 0.2478 0.2569 (  2313 PWs)   bands (ev):

     6.4892  12.0203  13.4293  14.4146  16.4008

          k = 0.1431 0.2478 0.4281 (  2325 PWs)   bands (ev):

     7.2854  12.0462  12.8141  14.2260  16.7678

          k = 0.1431 0.2478 0.5994 (  2314 PWs)   bands (ev):

     8.4790  10.0687  13.9745  15.4204  15.4833

          k = 0.2146 0.3718 0.0856 (  2312 PWs)   bands (ev):

     6.3706  10.7200  12.7635  15.5680  17.5442

          k = 0.2146 0.3718 0.2569 (  2311 PWs)   bands (ev):

     6.7692  11.1111  13.1620  14.7171  15.9300

          k = 0.2146 0.3718 0.4281 (  2304 PWs)   bands (ev):

     7.5664  11.8734  12.3688  13.9588  16.0188

          k = 0.2146 0.3718 0.5994 (  2303 PWs)   bands (ev):

     8.7616  10.3530  13.0623  14.5652  15.1535

          k =-0.2862-0.4957 0.0856 (  2300 PWs)   bands (ev):

     6.5097  10.3642  12.6663  15.4320  17.6772

          k =-0.2862-0.4957 0.2569 (  2310 PWs)   bands (ev):

     6.9087  10.7548  13.0648  14.8908  15.7257

          k =-0.2862-0.4957 0.4281 (  2308 PWs)   bands (ev):

     7.7064  11.5258  12.5085  13.8616  15.7071

          k =-0.2862-0.4957 0.5994 (  2316 PWs)   bands (ev):

     8.9027  10.4952  12.7054  14.2054  15.0565

          k = 0.2146 0.1239 0.0856 (  2301 PWs)   bands (ev):

     6.0195  12.0026  12.9530  16.7000  17.0667

          k = 0.2146 0.1239 0.2569 (  2316 PWs)   bands (ev):

     6.4176  12.3962  13.3430  14.3556  17.3233

          k = 0.2146 0.1239 0.4281 (  2323 PWs)   bands (ev):

     7.2137  11.9772  13.1810  14.1490  17.4605

          k = 0.2146 0.1239 0.5994 (  2320 PWs)   bands (ev):

     8.4070   9.9964  14.3475  15.2992  15.9338

          k = 0.2862 0.2478 0.0856 (  2300 PWs)   bands (ev):

     6.2796  11.1225  12.4550  16.4499  17.4678

          k = 0.2862 0.2478 0.2569 (  2313 PWs)   bands (ev):

     6.6780  11.5144  12.8460  14.6326  16.8443

          k = 0.2862 0.2478 0.4281 (  2317 PWs)   bands (ev):

     7.4748  12.2046  12.3368  13.6453  16.7051

          k = 0.2862 0.2478 0.5994 (  2313 PWs)   bands (ev):

     8.6695  10.2605  13.4578  14.6559  15.2077

          k = 0.3577 0.3718 0.0856 (  2306 PWs)   bands (ev):

     6.5039  10.5350  12.1878  16.2305  17.6751

          k = 0.3577 0.3718 0.2569 (  2304 PWs)   bands (ev):

     6.9029  10.9258  12.5805  14.8796  16.5204

          k = 0.3577 0.3718 0.4281 (  2313 PWs)   bands (ev):

     7.7006  11.6972  12.4963  13.3617  16.1647

          k = 0.3577 0.3718 0.5994 (  2313 PWs)   bands (ev):

     8.8969  10.4901  12.8669  14.1812  14.8278

          k = 0.4293 0.2478 0.0856 (  2308 PWs)   bands (ev):

     6.4982  10.8051  11.6916  17.4795  17.8301

          k = 0.4293 0.2478 0.2569 (  2311 PWs)   bands (ev):

     6.8971  11.1965  12.0814  14.8726  17.8011

          k = 0.4293 0.2478 0.4281 (  2315 PWs)   bands (ev):

     7.6948  11.9752  12.4559  12.8852  16.6209

          k = 0.4293 0.2478 0.5994 (  2319 PWs)   bands (ev):

     8.8911  10.4851  13.1189  13.9047  14.9133

          k = 0.5008 0.3718 0.0856 (  2301 PWs)   bands (ev):

     6.6008  10.7123  11.3633  17.7521  17.7725

          k = 0.5008 0.3718 0.2569 (  2304 PWs)   bands (ev):

     6.9999  11.1029  11.7538  14.9824  17.8779

          k = 0.5008 0.3718 0.4281 (  2315 PWs)   bands (ev):

     7.7982  11.8768  12.5266  12.5912  16.5626

          k = 0.5008 0.3718 0.5994 (  2322 PWs)   bands (ev):

     8.9955  10.5915  13.0139  13.5843  14.8189

     the Fermi energy is    -1.8296 ev

!    total energy              =      -1.99622680 Ry
     Harris-Foulkes estimate   =      -1.99622680 Ry
     estimated scf accuracy    <          3.2E-11 Ry

     total all-electron energy =        -1.996218 Ry

     The total energy is the sum of the following terms:

     one-electron contribution =      -0.27758294 Ry
     hartree contribution      =       0.44160149 Ry
     xc contribution           =      -1.24596817 Ry
     ewald contribution        =      -0.91387111 Ry
     one-center paw contrib.   =      -0.00040607 Ry
     smearing contrib. (-TS)   =       0.00000000 Ry

     total magnetization       =     2.00 Bohr mag/cell
     absolute magnetization    =     2.00 Bohr mag/cell

     convergence has been achieved in   6 iterations

     Forces acting on atoms (cartesian axes, Ry/au):

     atom    1 type  1   force =     0.00000000    0.00000000    0.00000000
     atom    2 type  1   force =     0.00000000    0.00000000    0.00000000

     Total force =     0.000000     Total SCF correction =     0.000000


     Computing stress (Cartesian axis) and pressure

          total   stress  (Ry/bohr**3)                   (kbar)     P=   23.64
   0.00015855   0.00000000   0.00000000         23.32      0.00      0.00
   0.00000000   0.00015855   0.00000000          0.00     23.32      0.00
   0.00000000   0.00000000   0.00016504          0.00      0.00     24.28


     number of scf cycles    =   3
     number of bfgs steps    =   2

     enthalpy old            =      -1.9960469447 Ry
     enthalpy new            =      -1.9962268037 Ry

     CASE: enthalpy_new < enthalpy_old

     new trust radius        =       0.0298549510 bohr
     new conv_thr            =       0.0000000100 Ry

     new unit-cell volume =    459.94668 a.u.^3 (    68.15707 Ang^3 )
     density =      0.04909 g/cm^3

CELL_PARAMETERS (alat=  8.88171282)
   0.879446864  -0.507748884  -0.000000000
   0.000000000   1.015497768   0.000000000
   0.000000000   0.000000000   0.735070059

ATOMIC_POSITIONS (crystal)
H        0.666666667   0.333333333   0.750000000
H        0.333333333   0.666666667   0.250000000



     Writing output data file pw.save/
     NEW-OLD atomic charge density approx. for the potential
     extrapolated charge    2.04056, renormalised to    2.00000

     total cpu time spent up to now is       30.3 secs

     Self-consistent Calculation

     iteration #  1     ecut=    46.00 Ry     beta= 0.70
     Davidson diagonalization with overlap
     ethr =  1.00E-06,  avg # of iterations =  2.4

     total cpu time spent up to now is       32.4 secs

     total energy              =      -1.99644786 Ry
     Harris-Foulkes estimate   =      -2.01068336 Ry
     estimated scf accuracy    <       0.00000611 Ry

     total magnetization       =     2.00 Bohr mag/cell
     absolute magnetization    =     2.00 Bohr mag/cell

     iteration #  2     ecut=    46.00 Ry     beta= 0.70
     Davidson diagonalization with overlap
     ethr =  3.06E-07,  avg # of iterations =  2.2

     total cpu time spent up to now is       34.6 secs

     total energy              =      -1.99648086 Ry
     Harris-Foulkes estimate   =      -1.99648226 Ry
     estimated scf accuracy    <       0.00000985 Ry

     total magnetization       =     2.00 Bohr mag/cell
     absolute magnetization    =     2.00 Bohr mag/cell

     iteration #  3     ecut=    46.00 Ry     beta= 0.70
     Davidson diagonalization with overlap
     ethr =  3.06E-07,  avg # of iterations =  1.0

     total cpu time spent up to now is       36.2 secs

     total energy              =      -1.99647976 Ry
     Harris-Foulkes estimate   =      -1.99648090 Ry
     estimated scf accuracy    <       0.00000425 Ry

     total magnetization       =     2.00 Bohr mag/cell
     absolute magnetization    =     2.00 Bohr mag/cell

     iteration #  4     ecut=    46.00 Ry     beta= 0.70
     Davidson diagonalization with overlap
     ethr =  2.12E-07,  avg # of iterations =  1.0

     total cpu time spent up to now is       37.9 secs

     total energy              =      -1.99647990 Ry
     Harris-Foulkes estimate   =      -1.99647992 Ry
     estimated scf accuracy    <       0.00000007 Ry

     total magnetization       =     2.00 Bohr mag/cell
     absolute magnetization    =     2.00 Bohr mag/cell

     iteration #  5     ecut=    46.00 Ry     beta= 0.70
     Davidson diagonalization with overlap
     ethr =  3.62E-09,  avg # of iterations =  1.0

     total cpu time spent up to now is       39.5 secs

     total energy              =      -1.99647990 Ry
     Harris-Foulkes estimate   =      -1.99647991 Ry
     estimated scf accuracy    <       0.00000002 Ry

     total magnetization       =     2.00 Bohr mag/cell
     absolute magnetization    =     2.00 Bohr mag/cell

     iteration #  6     ecut=    46.00 Ry     beta= 0.70
     Davidson diagonalization with overlap
     ethr =  1.19E-09,  avg # of iterations =  1.0

     Magnetic moment per site:
     atom:    1    charge:    0.9153    magn:    0.9153    constr:    0.0000
     atom:    2    charge:    0.9153    magn:    0.9153    constr:    0.0000

     total cpu time spent up to now is       41.1 secs

     End of self-consistent calculation

 ------ SPIN UP ------------


          k =-0.0000-0.0000 0.0850 (  2305 PWs)   bands (ev):

    -8.0159  -5.9009   2.9450   4.5288   4.5288

          k =-0.0000-0.0000 0.2551 (  2318 PWs)   bands (ev):

    -7.7849  -5.9274   2.9519   4.9070   4.9070

          k =-0.0000-0.0000 0.4251 (  2348 PWs)   bands (ev):

    -7.3640  -6.0543   2.8613   3.5335   5.6530

          k =-0.0000-0.0000 0.5952 (  2342 PWs)   bands (ev):

    -6.8443  -6.3651   2.7053   2.8144   6.7135

          k = 0.0711 0.1231 0.0850 (  2308 PWs)   bands (ev):

    -7.9475  -5.9770   2.5803   4.0536   4.2526

          k = 0.0711 0.1231 0.2551 (  2318 PWs)   bands (ev):

    -7.7212  -5.9881   2.6722   4.2299   4.4350

          k = 0.0711 0.1231 0.4251 (  2323 PWs)   bands (ev):

    -7.3109  -6.0859   2.6904   3.3487   5.1913

          k = 0.0711 0.1231 0.5952 (  2339 PWs)   bands (ev):

    -6.8107  -6.3616   2.5829   2.6917   6.2948

          k = 0.1421 0.2462 0.0850 (  2302 PWs)   bands (ev):

    -7.7548  -6.1878   1.8097   3.4593   4.3363

          k = 0.1421 0.2462 0.2551 (  2313 PWs)   bands (ev):

    -7.5423  -6.1596   2.0084   3.8436   3.9666

          k = 0.1421 0.2462 0.4251 (  2325 PWs)   bands (ev):

    -7.1642  -6.1809   2.2301   3.1092   4.6084

          k = 0.1421 0.2462 0.5952 (  2314 PWs)   bands (ev):

    -6.7218  -6.3593   2.2794   2.4713   5.6034

          k = 0.2132 0.3693 0.0850 (  2312 PWs)   bands (ev):

    -7.4853  -6.4747   1.2151   3.0784   4.6182

          k = 0.2132 0.3693 0.2551 (  2311 PWs)   bands (ev):

    -7.2949  -6.3997   1.4489   3.4640   4.0241

          k = 0.2132 0.3693 0.4251 (  2304 PWs)   bands (ev):

    -6.9670  -6.3260   1.7707   3.0720   4.2329

          k = 0.2132 0.3693 0.5952 (  2303 PWs)   bands (ev):

    -6.6129  -6.3750   1.9769   2.3239   4.9808

          k =-0.2843-0.4924 0.0850 (  2300 PWs)   bands (ev):

    -7.3094  -6.6577   1.0030   2.9494   4.7716

          k =-0.2843-0.4924 0.2551 (  2310 PWs)   bands (ev):

    -7.1353  -6.5563   1.2442   3.3354   4.1030

          k =-0.2843-0.4924 0.4251 (  2308 PWs)   bands (ev):

    -6.8442  -6.4272   1.5920   3.1019   4.1054

          k =-0.2843-0.4924 0.5952 (  2316 PWs)   bands (ev):

    -6.5522  -6.3966   1.8555   2.2767   4.7519

          k = 0.2132 0.1231 0.0850 (  2301 PWs)   bands (ev):

    -7.8165  -6.1205   1.9779   3.7585   4.1657

          k = 0.2132 0.1231 0.2551 (  2316 PWs)   bands (ev):

    -7.5995  -6.1044   2.1891   3.7209   4.3179

          k = 0.2132 0.1231 0.4251 (  2323 PWs)   bands (ev):

    -7.2107  -6.1495   2.4086   3.0818   4.6132

          k = 0.2132 0.1231 0.5952 (  2320 PWs)   bands (ev):

    -6.7493  -6.3588   2.4026   2.5073   5.3445

          k = 0.2843 0.2462 0.0850 (  2300 PWs)   bands (ev):

    -7.5798  -6.3732   1.2814   3.4524   4.3625

          k = 0.2843 0.2462 0.2551 (  2313 PWs)   bands (ev):

    -7.3812  -6.3142   1.5679   3.4646   4.1313

          k = 0.2843 0.2462 0.4251 (  2317 PWs)   bands (ev):

    -7.0349  -6.2729   1.9826   2.9178   4.0006

          k = 0.2843 0.2462 0.5952 (  2313 PWs)   bands (ev):

    -6.6488  -6.3668   2.1555   2.3467   4.4564

          k = 0.3553 0.3693 0.0850 (  2306 PWs)   bands (ev):

    -7.3172  -6.6459   0.8754   3.2628   4.6001

          k = 0.3553 0.3693 0.2551 (  2304 PWs)   bands (ev):

    -7.1422  -6.5465   1.1836   3.3826   4.0360

          k = 0.3553 0.3693 0.4251 (  2313 PWs)   bands (ev):

    -6.8491  -6.4212   1.6698   3.0234   3.5196

          k = 0.3553 0.3693 0.5952 (  2313 PWs)   bands (ev):

    -6.5541  -6.3948   1.9739   2.3105   3.9385

          k = 0.4264 0.2462 0.0850 (  2308 PWs)   bands (ev):

    -7.3249  -6.6344   0.7676   3.6683   4.3204

          k = 0.4264 0.2462 0.2551 (  2311 PWs)   bands (ev):

    -7.1489  -6.5371   1.1268   3.4200   3.9947

          k = 0.4264 0.2462 0.4251 (  2315 PWs)   bands (ev):

    -6.8540  -6.4152   1.7759   2.7948   3.3951

          k = 0.4264 0.2462 0.5952 (  2319 PWs)   bands (ev):

    -6.5561  -6.3930   2.1832   2.2792   3.5167

          k = 0.4975 0.3693 0.0850 (  2301 PWs)   bands (ev):

    -7.1183  -6.8423   0.5708   3.7670   4.3122

          k = 0.4975 0.3693 0.2551 (  2304 PWs)   bands (ev):

    -6.9632  -6.7180   0.9501   3.5138   3.8260

          k = 0.4975 0.3693 0.4251 (  2315 PWs)   bands (ev):

    -6.7146  -6.5382   1.6782   2.9456   3.0057

          k = 0.4975 0.3693 0.5952 (  2322 PWs)   bands (ev):

    -6.4935  -6.4278   2.2065   2.3635   3.0830

 ------ SPIN DOWN ----------


          k =-0.0000-0.0000 0.0850 (  2305 PWs)   bands (ev):

     5.6254  13.2777  13.2777  15.6532  16.5000

          k =-0.0000-0.0000 0.2551 (  2318 PWs)   bands (ev):

     6.0177  13.6706  13.6706  13.8288  16.0205

          k =-0.0000-0.0000 0.4251 (  2348 PWs)   bands (ev):

     6.8020  11.4970  14.4560  14.4560  16.7435

          k =-0.0000-0.0000 0.5952 (  2342 PWs)   bands (ev):

     7.9778   9.5438  15.6325  15.6325  17.1903

          k = 0.0711 0.1231 0.0850 (  2308 PWs)   bands (ev):

     5.7090  12.5347  13.1039  16.0818  16.5595

          k = 0.0711 0.1231 0.2551 (  2318 PWs)   bands (ev):

     6.1013  12.9234  13.4968  13.9115  16.5077

          k = 0.0711 0.1231 0.4251 (  2323 PWs)   bands (ev):

     6.8858  11.5812  13.7021  14.2822  17.1823

          k = 0.0711 0.1231 0.5952 (  2339 PWs)   bands (ev):

     8.0619   9.6281  14.8603  15.4591  16.3661

          k = 0.1421 0.2462 0.0850 (  2302 PWs)   bands (ev):

     5.9356  11.3849  12.7687  15.6453  16.9524

          k = 0.1421 0.2462 0.2551 (  2313 PWs)   bands (ev):

     6.3282  11.7712  13.1616  14.1406  16.0880

          k = 0.1421 0.2462 0.4251 (  2325 PWs)   bands (ev):

     7.1132  11.8064  12.5541  13.9471  16.4422

          k = 0.1421 0.2462 0.5952 (  2314 PWs)   bands (ev):

     8.2901   9.8574  13.6970  15.1247  15.1821

          k = 0.2132 0.3693 0.0850 (  2312 PWs)   bands (ev):

     6.2133  10.4863  12.5041  15.2657  17.2309

          k = 0.2132 0.3693 0.2551 (  2311 PWs)   bands (ev):

     6.6064  10.8717  12.8970  14.4415  15.6223

          k = 0.2132 0.3693 0.4251 (  2304 PWs)   bands (ev):

     7.3924  11.6228  12.1276  13.6826  15.7006

          k = 0.2132 0.3693 0.5952 (  2303 PWs)   bands (ev):

     8.5708  10.1398  12.7945  14.2737  14.8605

          k =-0.2843-0.4924 0.0850 (  2300 PWs)   bands (ev):

     6.3517  10.1338  12.4079  15.1319  17.3631

          k =-0.2843-0.4924 0.2551 (  2310 PWs)   bands (ev):

     6.7451  10.5188  12.8008  14.6159  15.4184

          k =-0.2843-0.4924 0.4251 (  2308 PWs)   bands (ev):

     7.5317  11.2783  12.2671  13.5865  15.3915

          k =-0.2843-0.4924 0.5952 (  2316 PWs)   bands (ev):

     8.7113  10.2814  12.4409  13.9172  14.7646

          k = 0.2132 0.1231 0.0850 (  2301 PWs)   bands (ev):

     5.8647  11.7552  12.6914  16.3804  16.7502

          k = 0.2132 0.1231 0.2551 (  2316 PWs)   bands (ev):

     6.2573  12.1432  13.0757  14.0826  16.9960

          k = 0.2132 0.1231 0.4251 (  2323 PWs)   bands (ev):

     7.0421  11.7381  12.9166  13.8708  17.1264

          k = 0.2132 0.1231 0.5952 (  2320 PWs)   bands (ev):

     8.2187   9.7856  14.0659  15.0031  15.6302

          k = 0.2843 0.2462 0.0850 (  2300 PWs)   bands (ev):

     6.1228  10.8847  12.1987  16.1358  17.1544

          k = 0.2843 0.2462 0.2551 (  2313 PWs)   bands (ev):

     6.5157  11.2710  12.5840  14.3581  16.5247

          k = 0.2843 0.2462 0.4251 (  2317 PWs)   bands (ev):

     7.3014  11.9588  12.0868  13.3724  16.3813

          k = 0.2843 0.2462 0.5952 (  2313 PWs)   bands (ev):

     8.4792  10.0479  13.1857  14.3638  14.9153

          k = 0.3553 0.3693 0.0850 (  2306 PWs)   bands (ev):

     6.3459  10.3028  11.9347  15.9203  17.3611

          k = 0.3553 0.3693 0.2551 (  2304 PWs)   bands (ev):

     6.7393  10.6879  12.3217  14.6045  16.2031

          k = 0.3553 0.3693 0.4251 (  2313 PWs)   bands (ev):

     7.5259  11.4478  12.2547  13.0915  15.8466

          k = 0.3553 0.3693 0.5952 (  2313 PWs)   bands (ev):

     8.7054  10.2763  12.6003  13.8922  14.5411

          k = 0.4264 0.2462 0.0850 (  2308 PWs)   bands (ev):

     6.3402  10.5701  11.4442  17.1565  17.5106

          k = 0.4264 0.2462 0.2551 (  2311 PWs)   bands (ev):

     6.7335  10.9558  11.8282  14.5975  17.4645

          k = 0.4264 0.2462 0.4251 (  2315 PWs)   bands (ev):

     7.5201  11.7230  12.2124  12.6224  16.3007

          k = 0.4264 0.2462 0.5952 (  2319 PWs)   bands (ev):

     8.6997  10.2713  12.8491  13.6213  14.6245

          k = 0.4975 0.3693 0.0850 (  2301 PWs)   bands (ev):

     6.4423  10.4774  11.1201  17.4219  17.4580

          k = 0.4975 0.3693 0.2551 (  2304 PWs)   bands (ev):

     6.8358  10.8622  11.5049  14.7071  17.5389

          k = 0.4975 0.3693 0.4251 (  2315 PWs)   bands (ev):

     7.6230  11.6247  12.2661  12.3492  16.2428

          k = 0.4975 0.3693 0.5952 (  2322 PWs)   bands (ev):

     8.8036  10.3773  12.7440  13.3049  14.5305

     the Fermi energy is    -1.8993 ev

!    total energy              =      -1.99647990 Ry
     Harris-Foulkes estimate   =      -1.99647990 Ry
     estimated scf accuracy    <          8.6E-11 Ry

     total all-electron energy =        -1.996471 Ry

     The total energy is the sum of the following terms:

     one-electron contribution =      -0.28824208 Ry
     hartree contribution      =       0.44504379 Ry
     xc contribution           =      -1.24520431 Ry
     ewald contribution        =      -0.90767108 Ry
     one-center paw contrib.   =      -0.00040622 Ry
     smearing contrib. (-TS)   =       0.00000000 Ry

     total magnetization       =     2.00 Bohr mag/cell
     absolute magnetization    =     2.00 Bohr mag/cell

     convergence has been achieved in   6 iterations

     Forces acting on atoms (cartesian axes, Ry/au):

     atom    1 type  1   force =     0.00000000    0.00000000    0.00000000
     atom    2 type  1   force =     0.00000000    0.00000000    0.00000000

     Total force =     0.000000     Total SCF correction =     0.000000


     Computing stress (Cartesian axis) and pressure

          total   stress  (Ry/bohr**3)                   (kbar)     P=   22.89
   0.00015356  -0.00000000  -0.00000000         22.59     -0.00     -0.00
  -0.00000000   0.00015356  -0.00000000         -0.00     22.59     -0.00
  -0.00000000  -0.00000000   0.00015963         -0.00     -0.00     23.48


     number of scf cycles    =   4
     number of bfgs steps    =   3

     enthalpy old            =      -1.9962268037 Ry
     enthalpy new            =      -1.9964798998 Ry

     CASE: enthalpy_new < enthalpy_old

     new trust radius        =       0.0449276404 bohr
     new conv_thr            =       0.0000000100 Ry

     new unit-cell volume =    474.18835 a.u.^3 (    70.26746 Ang^3 )
     density =      0.04762 g/cm^3

CELL_PARAMETERS (alat=  8.88171282)
   0.888318355  -0.512870842  -0.000000000
   0.000000000   1.025741683   0.000000000
  -0.000000000  -0.000000000   0.742769490

ATOMIC_POSITIONS (crystal)
H        0.666666667   0.333333333   0.750000000
H        0.333333333   0.666666667   0.250000000



     Writing output data file pw.save/
     NEW-OLD atomic charge density approx. for the potential
     extrapolated charge    2.06007, renormalised to    2.00000

     total cpu time spent up to now is       42.9 secs

     Self-consistent Calculation

     iteration #  1     ecut=    46.00 Ry     beta= 0.70
     Davidson diagonalization with overlap
     ethr =  1.00E-06,  avg # of iterations =  2.8

     total cpu time spent up to now is       45.3 secs

     total energy              =      -1.99675183 Ry
     Harris-Foulkes estimate   =      -2.01745516 Ry
     estimated scf accuracy    <       0.00001338 Ry

     total magnetization       =     2.00 Bohr mag/cell
     absolute magnetization    =     2.00 Bohr mag/cell

     iteration #  2     ecut=    46.00 Ry     beta= 0.70
     Davidson diagonalization with overlap
     ethr =  6.69E-07,  avg # of iterations =  2.6

     total cpu time spent up to now is       47.8 secs

     total energy              =      -1.99682563 Ry
     Harris-Foulkes estimate   =      -1.99682882 Ry
     estimated scf accuracy    <       0.00002230 Ry

     total magnetization       =     2.00 Bohr mag/cell
     absolute magnetization    =     2.00 Bohr mag/cell

     iteration #  3     ecut=    46.00 Ry     beta= 0.70
     Davidson diagonalization with overlap
     ethr =  6.69E-07,  avg # of iterations =  1.0

     total cpu time spent up to now is       49.5 secs

     total energy              =      -1.99682306 Ry
     Harris-Foulkes estimate   =      -1.99682572 Ry
     estimated scf accuracy    <       0.00000970 Ry

     total magnetization       =     2.00 Bohr mag/cell
     absolute magnetization    =     2.00 Bohr mag/cell

     iteration #  4     ecut=    46.00 Ry     beta= 0.70
     Davidson diagonalization with overlap
     ethr =  4.85E-07,  avg # of iterations =  1.1

     total cpu time spent up to now is       51.1 secs

     total energy              =      -1.99682340 Ry
     Harris-Foulkes estimate   =      -1.99682345 Ry
     estimated scf accuracy    <       0.00000022 Ry

     total magnetization       =     2.00 Bohr mag/cell
     absolute magnetization    =     2.00 Bohr mag/cell

     iteration #  5     ecut=    46.00 Ry     beta= 0.70
     Davidson diagonalization with overlap
     ethr =  1.09E-08,  avg # of iterations =  1.0

     total cpu time spent up to now is       52.7 secs

     total energy              =      -1.99682340 Ry
     Harris-Foulkes estimate   =      -1.99682341 Ry
     estimated scf accuracy    <       0.00000005 Ry

     total magnetization       =     2.00 Bohr mag/cell
     absolute magnetization    =     2.00 Bohr mag/cell

     iteration #  6     ecut=    46.00 Ry     beta= 0.70
     Davidson diagonalization with overlap
     ethr =  2.29E-09,  avg # of iterations =  1.0

     Magnetic moment per site:
     atom:    1    charge:    0.9179    magn:    0.9179    constr:    0.0000
     atom:    2    charge:    0.9179    magn:    0.9179    constr:    0.0000

     total cpu time spent up to now is       54.3 secs

     End of self-consistent calculation

 ------ SPIN UP ------------


          k =-0.0000-0.0000 0.0841 (  2305 PWs)   bands (ev):

    -7.9869  -5.9676   2.7999   4.4123   4.4123

          k =-0.0000-0.0000 0.2524 (  2318 PWs)   bands (ev):

    -7.7649  -5.9934   2.8068   4.7824   4.7824

          k =-0.0000-0.0000 0.4207 (  2348 PWs)   bands (ev):

    -7.3615  -6.1144   2.7244   3.4321   5.5123

          k =-0.0000-0.0000 0.5890 (  2342 PWs)   bands (ev):

    -6.8651  -6.4095   2.5884   2.7148   6.5493

          k = 0.0704 0.1219 0.0841 (  2308 PWs)   bands (ev):

    -7.9213  -6.0398   2.4582   3.9471   4.1301

          k = 0.0704 0.1219 0.2524 (  2318 PWs)   bands (ev):

    -7.7039  -6.0510   2.5450   4.1132   4.3204

          k = 0.0704 0.1219 0.4207 (  2323 PWs)   bands (ev):

    -7.3108  -6.1446   2.5643   3.2530   5.0606

          k = 0.0704 0.1219 0.5890 (  2339 PWs)   bands (ev):

    -6.8333  -6.4065   2.4737   2.5983   6.1401

          k = 0.1407 0.2437 0.0841 (  2302 PWs)   bands (ev):

    -7.7364  -6.2399   1.7231   3.3649   4.1890

          k = 0.1407 0.2437 0.2524 (  2313 PWs)   bands (ev):

    -7.5327  -6.2139   1.9160   3.7411   3.8386

          k = 0.1407 0.2437 0.4207 (  2325 PWs)   bands (ev):

    -7.1709  -6.2352   2.1337   3.0122   4.4898

          k = 0.1407 0.2437 0.5890 (  2314 PWs)   bands (ev):

    -6.7493  -6.4050   2.1915   2.3857   5.4593

          k = 0.2111 0.3656 0.0841 (  2312 PWs)   bands (ev):

    -7.4784  -6.5125   1.1485   2.9917   4.4476

          k = 0.2111 0.3656 0.2524 (  2311 PWs)   bands (ev):

    -7.2962  -6.4419   1.3781   3.3693   3.8817

          k = 0.2111 0.3656 0.4207 (  2304 PWs)   bands (ev):

    -6.9832  -6.3732   1.6973   2.9682   4.1219

          k = 0.2111 0.3656 0.5890 (  2303 PWs)   bands (ev):

    -6.6465  -6.4206   1.9072   2.2456   4.8488

          k =-0.2814-0.4875 0.0841 (  2300 PWs)   bands (ev):

    -7.3104  -6.6863   0.9427   2.8653   4.5895

          k =-0.2814-0.4875 0.2524 (  2310 PWs)   bands (ev):

    -7.1440  -6.5906   1.1802   3.2433   3.9518

          k =-0.2814-0.4875 0.4207 (  2308 PWs)   bands (ev):

    -6.8666  -6.4692   1.5261   2.9939   3.9971

          k =-0.2814-0.4875 0.5890 (  2316 PWs)   bands (ev):

    -6.5892  -6.4414   1.7924   2.2017   4.6243

          k = 0.2111 0.1219 0.0841 (  2301 PWs)   bands (ev):

    -7.7956  -6.1759   1.8868   3.6495   4.0333

          k = 0.2111 0.1219 0.2524 (  2316 PWs)   bands (ev):

    -7.5874  -6.1614   2.0892   3.6156   4.1851

          k = 0.2111 0.1219 0.4207 (  2323 PWs)   bands (ev):

    -7.2152  -6.2053   2.2995   2.9942   4.4862

          k = 0.2111 0.1219 0.5890 (  2320 PWs)   bands (ev):

    -6.7753  -6.4043   2.3041   2.4237   5.2104

          k = 0.2814 0.2437 0.0841 (  2300 PWs)   bands (ev):

    -7.5687  -6.4161   1.2170   3.3464   4.2086

          k = 0.2814 0.2437 0.2524 (  2313 PWs)   bands (ev):

    -7.3786  -6.3608   1.4957   3.3601   3.9907

          k = 0.2814 0.2437 0.4207 (  2317 PWs)   bands (ev):

    -7.0478  -6.3228   1.8994   2.8284   3.8833

          k = 0.2814 0.2437 0.5890 (  2313 PWs)   bands (ev):

    -6.6804  -6.4126   2.0760   2.2686   4.3402

          k = 0.3518 0.3656 0.0841 (  2306 PWs)   bands (ev):

    -7.3177  -6.6756   0.8241   3.1602   4.4273

          k = 0.3518 0.3656 0.2524 (  2304 PWs)   bands (ev):

    -7.1504  -6.5816   1.1257   3.2793   3.8892

          k = 0.3518 0.3656 0.4207 (  2313 PWs)   bands (ev):

    -6.8712  -6.4637   1.6029   2.9223   3.4175

          k = 0.3518 0.3656 0.5890 (  2313 PWs)   bands (ev):

    -6.5910  -6.4397   1.9073   2.2348   3.8323

          k = 0.4221 0.2437 0.0841 (  2308 PWs)   bands (ev):

    -7.3248  -6.6650   0.7231   3.5425   4.1633

          k = 0.4221 0.2437 0.2524 (  2311 PWs)   bands (ev):

    -7.1567  -6.5729   1.0741   3.3061   3.8517

          k = 0.4221 0.2437 0.4207 (  2315 PWs)   bands (ev):

    -6.8756  -6.4582   1.7072   2.7077   3.2850

          k = 0.4221 0.2437 0.5890 (  2319 PWs)   bands (ev):

    -6.5928  -6.4381   2.1068   2.2085   3.4200

          k = 0.4925 0.3656 0.0841 (  2301 PWs)   bands (ev):

    -7.1274  -6.8632   0.5334   3.6343   4.1516

          k = 0.4925 0.3656 0.2524 (  2304 PWs)   bands (ev):

    -6.9795  -6.7453   0.9047   3.3931   3.6871

          k = 0.4925 0.3656 0.4207 (  2315 PWs)   bands (ev):

    -6.7431  -6.5752   1.6171   2.8525   2.9030

          k = 0.4925 0.3656 0.5890 (  2322 PWs)   bands (ev):

    -6.5337  -6.4713   2.1363   2.2882   2.9951

 ------ SPIN DOWN ----------


          k =-0.0000-0.0000 0.0841 (  2305 PWs)   bands (ev):

     5.4052  12.8913  12.8913  15.2274  16.0466

          k =-0.0000-0.0000 0.2524 (  2318 PWs)   bands (ev):

     5.7894  13.2760  13.2760  13.4355  15.5861

          k =-0.0000-0.0000 0.4207 (  2348 PWs)   bands (ev):

     6.5573  11.1536  14.0450  14.0450  16.2918

          k =-0.0000-0.0000 0.5890 (  2342 PWs)   bands (ev):

     7.7085   9.2416  15.1967  15.1967  16.7206

          k = 0.0704 0.1219 0.0841 (  2308 PWs)   bands (ev):

     5.4877  12.1614  12.7191  15.6307  16.1068

          k = 0.0704 0.1219 0.2524 (  2318 PWs)   bands (ev):

     5.8719  12.5418  13.1038  13.5169  16.0521

          k = 0.0704 0.1219 0.4207 (  2323 PWs)   bands (ev):

     6.6401  11.2367  13.3041  13.8729  16.7063

          k = 0.0704 0.1219 0.5890 (  2339 PWs)   bands (ev):

     7.7915   9.3249  14.4372  15.0251  15.9084

          k = 0.1407 0.2437 0.0841 (  2302 PWs)   bands (ev):

     5.7117  11.0308  12.3880  15.1939  16.4995

          k = 0.1407 0.2437 0.2524 (  2313 PWs)   bands (ev):

     6.0962  11.4088  12.7727  13.7432  15.6307

          k = 0.1407 0.2437 0.4207 (  2325 PWs)   bands (ev):

     6.8649  11.4589  12.1757  13.5419  15.9669

          k = 0.1407 0.2437 0.5890 (  2314 PWs)   bands (ev):

     8.0172   9.5516  13.2930  14.6949  14.7435

          k = 0.2111 0.3656 0.0841 (  2312 PWs)   bands (ev):

     5.9870  10.1459  12.1271  14.8231  16.7764

          k = 0.2111 0.3656 0.2524 (  2311 PWs)   bands (ev):

     6.3719  10.5229  12.5119  14.0420  15.1725

          k = 0.2111 0.3656 0.4207 (  2304 PWs)   bands (ev):

     7.1415  11.2577  11.7784  13.2812  15.2362

          k = 0.2111 0.3656 0.5890 (  2303 PWs)   bands (ev):

     8.2955   9.8317  12.4041  13.8487  14.4346

          k =-0.2814-0.4875 0.0841 (  2300 PWs)   bands (ev):

     6.1245   9.7981  12.0324  14.6927  16.9078

          k =-0.2814-0.4875 0.2524 (  2310 PWs)   bands (ev):

     6.5098  10.1747  12.4172  14.2179  14.9687

          k =-0.2814-0.4875 0.4207 (  2308 PWs)   bands (ev):

     7.2801  10.9175  11.9180  13.1865  14.9308

          k =-0.2814-0.4875 0.5890 (  2316 PWs)   bands (ev):

     8.4352   9.9725  12.0553  13.4968  14.3401

          k = 0.2111 0.1219 0.0841 (  2301 PWs)   bands (ev):

     5.6416  11.3955  12.3112  15.9139  16.2876

          k = 0.2111 0.1219 0.2524 (  2316 PWs)   bands (ev):

     6.0260  11.7752  12.6870  13.6867  16.5178

          k = 0.2111 0.1219 0.4207 (  2323 PWs)   bands (ev):

     6.7945  11.3918  12.5321  13.4662  16.6394

          k = 0.2111 0.1219 0.5890 (  2320 PWs)   bands (ev):

     7.9465   9.4806  13.6562  14.5724  15.1883

          k = 0.2814 0.2437 0.0841 (  2300 PWs)   bands (ev):

     5.8972  10.5386  11.8260  15.6767  16.6995

          k = 0.2814 0.2437 0.2524 (  2313 PWs)   bands (ev):

     6.2819  10.9165  12.2028  13.9602  16.0578

          k = 0.2814 0.2437 0.4207 (  2317 PWs)   bands (ev):

     7.0512  11.6006  11.7251  12.9753  15.9093

          k = 0.2814 0.2437 0.5890 (  2313 PWs)   bands (ev):

     8.2045   9.7404  12.7893  13.9383  14.4896

          k = 0.3518 0.3656 0.0841 (  2306 PWs)   bands (ev):

     6.1187   9.9644  11.5666  15.4668  16.9057

          k = 0.3518 0.3656 0.2524 (  2304 PWs)   bands (ev):

     6.5039  10.3411  11.9453  14.2061  15.7394

          k = 0.3518 0.3656 0.4207 (  2313 PWs)   bands (ev):

     7.2742  11.0844  11.9051  12.6984  15.3828

          k = 0.3518 0.3656 0.5890 (  2313 PWs)   bands (ev):

     8.4293   9.9674  12.2117  13.4710  14.1236

          k = 0.4221 0.2437 0.0841 (  2308 PWs)   bands (ev):

     6.1129  10.2277  11.0838  16.6855  17.0465

          k = 0.4221 0.2437 0.2524 (  2311 PWs)   bands (ev):

     6.4981  10.6051  11.4594  14.1990  16.9732

          k = 0.4221 0.2437 0.4207 (  2315 PWs)   bands (ev):

     7.2684  11.3555  11.8596  12.2401  15.8339

          k = 0.4221 0.2437 0.5890 (  2319 PWs)   bands (ev):

     8.4235   9.9624  12.4558  13.2082  14.2037

          k = 0.4925 0.3656 0.0841 (  2301 PWs)   bands (ev):

     6.2144  10.1350  10.7659  16.9396  17.0023

          k = 0.4925 0.3656 0.2524 (  2304 PWs)   bands (ev):

     6.5999  10.5115  11.1423  14.3084  17.0442

          k = 0.4925 0.3656 0.4207 (  2315 PWs)   bands (ev):

     7.3708  11.2571  11.8865  11.9994  15.7765

          k = 0.4925 0.3656 0.5890 (  2322 PWs)   bands (ev):

     8.5270  10.0681  12.3505  12.8976  14.1101

     the Fermi energy is    -2.0007 ev

!    total energy              =      -1.99682340 Ry
     Harris-Foulkes estimate   =      -1.99682340 Ry
     estimated scf accuracy    <          1.7E-10 Ry

     total all-electron energy =        -1.996815 Ry

     The total energy is the sum of the following terms:

     one-electron contribution =      -0.30397284 Ry
     hartree contribution      =       0.45018062 Ry
     xc contribution           =      -1.24410418 Ry
     ewald contribution        =      -0.89852057 Ry
     one-center paw contrib.   =      -0.00040644 Ry
     smearing contrib. (-TS)   =       0.00000000 Ry

     total magnetization       =     2.00 Bohr mag/cell
     absolute magnetization    =     2.00 Bohr mag/cell

     convergence has been achieved in   6 iterations

     Forces acting on atoms (cartesian axes, Ry/au):

     atom    1 type  1   force =     0.00000000   -0.00000000   -0.00000000
     atom    2 type  1   force =    -0.00000000    0.00000000    0.00000000

     Total force =     0.000000     Total SCF correction =     0.000000


     Computing stress (Cartesian axis) and pressure

          total   stress  (Ry/bohr**3)                   (kbar)     P=   21.81
   0.00014645   0.00000000  -0.00000000         21.54      0.00     -0.00
   0.00000000   0.00014645  -0.00000000          0.00     21.54     -0.00
  -0.00000000  -0.00000000   0.00015193         -0.00     -0.00     22.35


     number of scf cycles    =   5
     number of bfgs steps    =   4

     enthalpy old            =      -1.9964798998 Ry
     enthalpy new            =      -1.9968233978 Ry

     CASE: enthalpy_new < enthalpy_old

     new trust radius        =       0.0677175503 bohr
     new conv_thr            =       0.0000000100 Ry

     new unit-cell volume =    496.11103 a.u.^3 (    73.51607 Ang^3 )
     density =      0.04551 g/cm^3

CELL_PARAMETERS (alat=  8.88171282)
   0.901638086  -0.520560992  -0.000000000
   0.000000000   1.041121983   0.000000000
  -0.000000000  -0.000000000   0.754318636

ATOMIC_POSITIONS (crystal)
H        0.666666667   0.333333333   0.750000000
H        0.333333333   0.666666667   0.250000000



     Writing output data file pw.save/
     NEW-OLD atomic charge density approx. for the potential
     extrapolated charge    2.08838, renormalised to    2.00000

     total cpu time spent up to now is       56.0 secs

     Self-consistent Calculation

     iteration #  1     ecut=    46.00 Ry     beta= 0.70
     Davidson diagonalization with overlap
     ethr =  1.00E-06,  avg # of iterations =  3.5

     total cpu time spent up to now is       58.8 secs

     total energy              =      -1.99710355 Ry
     Harris-Foulkes estimate   =      -2.02673988 Ry
     estimated scf accuracy    <       0.00002878 Ry

     total magnetization       =     2.00 Bohr mag/cell
     absolute magnetization    =     2.00 Bohr mag/cell

     iteration #  2     ecut=    46.00 Ry     beta= 0.70
     Davidson diagonalization with overlap
     ethr =  1.44E-06,  avg # of iterations =  2.9

     total cpu time spent up to now is       61.5 secs

     total energy              =      -1.99726724 Ry
     Harris-Foulkes estimate   =      -1.99727450 Ry
     estimated scf accuracy    <       0.00005042 Ry

     total magnetization       =     2.00 Bohr mag/cell
     absolute magnetization    =     2.00 Bohr mag/cell

     iteration #  3     ecut=    46.00 Ry     beta= 0.70
     Davidson diagonalization with overlap
     ethr =  1.44E-06,  avg # of iterations =  1.0

     total cpu time spent up to now is       63.2 secs

     total energy              =      -1.99726122 Ry
     Harris-Foulkes estimate   =      -1.99726743 Ry
     estimated scf accuracy    <       0.00002219 Ry

     total magnetization       =     2.00 Bohr mag/cell
     absolute magnetization    =     2.00 Bohr mag/cell

     iteration #  4     ecut=    46.00 Ry     beta= 0.70
     Davidson diagonalization with overlap
     ethr =  1.11E-06,  avg # of iterations =  1.6

     total cpu time spent up to now is       65.0 secs

     total energy              =      -1.99726203 Ry
     Harris-Foulkes estimate   =      -1.99726218 Ry
     estimated scf accuracy    <       0.00000061 Ry

     total magnetization       =     2.00 Bohr mag/cell
     absolute magnetization    =     2.00 Bohr mag/cell

     iteration #  5     ecut=    46.00 Ry     beta= 0.70
     Davidson diagonalization with overlap
     ethr =  3.04E-08,  avg # of iterations =  1.0

     total cpu time spent up to now is       66.6 secs

     total energy              =      -1.99726202 Ry
     Harris-Foulkes estimate   =      -1.99726205 Ry
     estimated scf accuracy    <       0.00000011 Ry

     total magnetization       =     2.00 Bohr mag/cell
     absolute magnetization    =     2.00 Bohr mag/cell

     iteration #  6     ecut=    46.00 Ry     beta= 0.70
     Davidson diagonalization with overlap
     ethr =  5.39E-09,  avg # of iterations =  1.0

[...]

     5.4711   8.3282   8.8678   9.2932  12.0431

          k = 0.4490 0.3333 0.5353 (  2322 PWs)   bands (ev):

     6.4255   7.6970   9.2047   9.6416  10.7614

     the Fermi energy is    -2.7430 ev

!    total energy              =      -1.99831546 Ry
     Harris-Foulkes estimate   =      -1.99824823 Ry
     estimated scf accuracy    <          3.4E-10 Ry

     total all-electron energy =        -1.998307 Ry

     The total energy is the sum of the following terms:

     one-electron contribution =      -0.44162562 Ry
     hartree contribution      =       0.49793857 Ry
     xc contribution           =      -1.23571360 Ry
     ewald contribution        =      -0.81850638 Ry
     one-center paw contrib.   =      -0.00040842 Ry
     smearing contrib. (-TS)   =       0.00000000 Ry

     total magnetization       =     2.00 Bohr mag/cell
     absolute magnetization    =     2.00 Bohr mag/cell

     convergence has been achieved in   1 iterations

     Forces acting on atoms (cartesian axes, Ry/au):

     atom    1 type  1   force =     0.00000000    0.00000000   -0.00000000
     atom    2 type  1   force =    -0.00000000   -0.00000000    0.00000000

     Total force =     0.000000     Total SCF correction =     0.000000


     Computing stress (Cartesian axis) and pressure

          total   stress  (Ry/bohr**3)                   (kbar)     P=   14.09
   0.00009512   0.00000000  -0.00000000         13.99      0.00     -0.00
   0.00000000   0.00009512  -0.00000000          0.00     13.99     -0.00
   0.00000000   0.00000000   0.00009703          0.00      0.00     14.27


     number of scf cycles    =  49
     number of bfgs steps    =   9

     enthalpy old            =      -1.9983154148 Ry
     enthalpy new            =      -1.9983154630 Ry

     CASE: enthalpy_new > enthalpy_old

     new trust radius        =       0.0000992498 bohr

     trust_radius < trust_radius_min

     resetting bfgs history

     new conv_thr            =       0.0000000100 Ry

     new unit-cell volume =    632.22937 a.u.^3 (    93.68673 Ang^3 )
     density =      0.03571 g/cm^3

CELL_PARAMETERS (alat=  8.88171282)
   0.976674054  -0.563883028   0.000000000
   0.000000000   1.127766056   0.000000000
   0.000000000  -0.000000000   0.819248808

ATOMIC_POSITIONS (crystal)
H        0.666666667   0.333333333   0.750000000
H        0.333333333   0.666666667   0.250000000



     Writing output data file pw.save/
     NEW-OLD atomic charge density approx. for the potential
     extrapolated charge    2.01406, renormalised to    2.00000

     total cpu time spent up to now is      491.5 secs

     Self-consistent Calculation

     iteration #  1     ecut=    46.00 Ry     beta= 0.70
     Davidson diagonalization with overlap
     ethr =  1.00E-06,  avg # of iterations =  1.5

     Threshold (ethr) on eigenvalues was too large:
     Diagonalizing with lowered threshold

     Davidson diagonalization with overlap
     ethr =  5.49E-08,  avg # of iterations =  1.0

     total cpu time spent up to now is      494.7 secs

     total energy              =      -1.99831297 Ry
     Harris-Foulkes estimate   =      -2.00240373 Ry
     estimated scf accuracy    <       0.00000109 Ry

     total magnetization       =     2.00 Bohr mag/cell
     absolute magnetization    =     2.00 Bohr mag/cell

     iteration #  2     ecut=    46.00 Ry     beta= 0.70
     Davidson diagonalization with overlap
     ethr =  5.46E-08,  avg # of iterations =  1.5

     total cpu time spent up to now is      496.5 secs

     total energy              =      -1.99831774 Ry
     Harris-Foulkes estimate   =      -1.99831799 Ry
     estimated scf accuracy    <       0.00000145 Ry

     total magnetization       =     2.00 Bohr mag/cell
     absolute magnetization    =     2.00 Bohr mag/cell

     iteration #  3     ecut=    46.00 Ry     beta= 0.70
     Davidson diagonalization with overlap
     ethr =  5.46E-08,  avg # of iterations =  1.0

     total cpu time spent up to now is      498.1 secs

     total energy              =      -1.99831757 Ry
     Harris-Foulkes estimate   =      -1.99831775 Ry
     estimated scf accuracy    <       0.00000057 Ry

     total magnetization       =     2.00 Bohr mag/cell
     absolute magnetization    =     2.00 Bohr mag/cell

     iteration #  4     ecut=    46.00 Ry     beta= 0.70
     Davidson diagonalization with overlap
     ethr =  2.86E-08,  avg # of iterations =  1.0

     total cpu time spent up to now is      499.7 secs

     total energy              =      -1.99831760 Ry
     Harris-Foulkes estimate   =      -1.99831760 Ry
     estimated scf accuracy    <       0.00000002 Ry

     total magnetization       =     2.00 Bohr mag/cell
     absolute magnetization    =     2.00 Bohr mag/cell

     iteration #  5     ecut=    46.00 Ry     beta= 0.70
     Davidson diagonalization with overlap
     ethr =  1.03E-09,  avg # of iterations =  1.0

     Magnetic moment per site:
     atom:    1    charge:    0.9400    magn:    0.9400    constr:    0.0000
     atom:    2    charge:    0.9400    magn:    0.9400    constr:    0.0000

     total cpu time spent up to now is      501.3 secs

     End of self-consistent calculation

 ------ SPIN UP ------------


          k =-0.0000-0.0000 0.0763 (  2305 PWs)   bands (ev):

    -7.7626  -6.4870   1.5924   3.4219   3.4219

          k =-0.0000-0.0000 0.2289 (  2318 PWs)   bands (ev):

    -7.6144  -6.5063   1.6109   3.7243   3.7243

          k =-0.0000-0.0000 0.3814 (  2348 PWs)   bands (ev):

    -7.3513  -6.5827   1.6080   2.5695   4.3199

          k =-0.0000-0.0000 0.5340 (  2342 PWs)   bands (ev):

    -7.0380  -6.7602   1.6317   1.8837   5.1611

          k = 0.0640 0.1108 0.0763 (  2308 PWs)   bands (ev):

    -7.7192  -6.5304   1.4153   3.0412   3.1117

          k = 0.0640 0.1108 0.2289 (  2318 PWs)   bands (ev):

    -7.5749  -6.5410   1.4765   3.1336   3.3467

          k = 0.0640 0.1108 0.3814 (  2323 PWs)   bands (ev):

    -7.3195  -6.6016   1.5263   2.4402   3.9517

          k = 0.0640 0.1108 0.5340 (  2339 PWs)   bands (ev):

    -7.0197  -6.7601   1.5732   1.8164   4.8312

          k = 0.1280 0.2217 0.0763 (  2302 PWs)   bands (ev):

    -7.5977  -6.6508   0.9770   2.5623   2.9735

          k = 0.1280 0.2217 0.2289 (  2313 PWs)   bands (ev):

    -7.4645  -6.6394   1.1244   2.7767   2.8704

          k = 0.1280 0.2217 0.3814 (  2325 PWs)   bands (ev):

    -7.2329  -6.6585   1.3119   2.2097   3.4833

          k = 0.1280 0.2217 0.5340 (  2314 PWs)   bands (ev):

    -6.9713  -6.7633   1.4408   1.6805   4.2289

          k = 0.1920 0.3325 0.0763 (  2312 PWs)   bands (ev):

    -7.4312  -6.8162   0.5843   2.2547   3.0450

          k = 0.1920 0.3325 0.2289 (  2311 PWs)   bands (ev):

    -7.3143  -6.7774   0.7787   2.5641   2.6993

          k = 0.1920 0.3325 0.3814 (  2304 PWs)   bands (ev):

    -7.1178  -6.7430   1.0717   2.1040   3.1807

          k = 0.1920 0.3325 0.5340 (  2303 PWs)   bands (ev):

    -6.9127  -6.7766   1.3075   1.5891   3.7180

          k =-0.2560-0.4434 0.0763 (  2300 PWs)   bands (ev):

    -7.3247  -6.9217   0.4367   2.1505   3.1009

          k =-0.2560-0.4434 0.2289 (  2310 PWs)   bands (ev):

    -7.2193  -6.8674   0.6432   2.4603   2.7055

          k =-0.2560-0.4434 0.3814 (  2308 PWs)   bands (ev):

    -7.0475  -6.8008   0.9686   2.0920   3.0779

          k =-0.2560-0.4434 0.5340 (  2316 PWs)   bands (ev):

    -6.8804  -6.7904   1.2506   1.5647   3.5310

          k = 0.1920 0.1108 0.0763 (  2301 PWs)   bands (ev):

    -7.6364  -6.6122   1.0914   2.7336   2.9381

          k = 0.1920 0.1108 0.2289 (  2316 PWs)   bands (ev):

    -7.4996  -6.6078   1.2300   2.7272   3.0926

          k = 0.1920 0.1108 0.3814 (  2323 PWs)   bands (ev):

    -7.2601  -6.6400   1.3903   2.2463   3.4231

          k = 0.1920 0.1108 0.5340 (  2320 PWs)   bands (ev):

    -6.9862  -6.7617   1.4887   1.7159   4.0685

          k = 0.2560 0.2217 0.0763 (  2300 PWs)   bands (ev):

    -7.4888  -6.7581   0.6566   2.4597   2.9363

          k = 0.2560 0.2217 0.2289 (  2313 PWs)   bands (ev):

    -7.3661  -6.7289   0.8722   2.4786   2.8368

          k = 0.2560 0.2217 0.3814 (  2317 PWs)   bands (ev):

    -7.1570  -6.7129   1.1902   2.0735   2.9054

          k = 0.2560 0.2217 0.5340 (  2313 PWs)   bands (ev):

    -6.9320  -6.7709   1.3958   1.6168   3.3470

          k = 0.3200 0.3325 0.0763 (  2306 PWs)   bands (ev):

    -7.3283  -6.9172   0.3815   2.3026   3.0102

          k = 0.3200 0.3325 0.2289 (  2304 PWs)   bands (ev):

    -7.2224  -6.8633   0.6284   2.4130   2.6808

          k = 0.3200 0.3325 0.3814 (  2313 PWs)   bands (ev):

    -7.0497  -6.7986   1.0318   2.0684   2.5624

          k = 0.3200 0.3325 0.5340 (  2313 PWs)   bands (ev):

    -6.8811  -6.7897   1.3349   1.5936   2.9224

          k = 0.3840 0.2217 0.0763 (  2308 PWs)   bands (ev):

    -7.3318  -6.9126   0.3314   2.5032   2.8670

          k = 0.3840 0.2217 0.2289 (  2311 PWs)   bands (ev):

    -7.2255  -6.8597   0.6137   2.3615   2.6767

          k = 0.3840 0.2217 0.3814 (  2315 PWs)   bands (ev):

    -7.0518  -6.7962   1.1143   1.9725   2.3702

          k = 0.3840 0.2217 0.5340 (  2319 PWs)   bands (ev):

    -6.8819  -6.7891   1.4597   1.6031   2.5911

          k = 0.4479 0.3325 0.0763 (  2301 PWs)   bands (ev):

    -7.2061  -7.0366   0.2021   2.5397   2.8347

          k = 0.4479 0.3325 0.2289 (  2304 PWs)   bands (ev):

    -7.1144  -6.9662   0.5061   2.3959   2.5434

          k = 0.4479 0.3325 0.3814 (  2315 PWs)   bands (ev):

    -6.9712  -6.8676   1.0877   2.0462   2.0701

          k = 0.4479 0.3325 0.5340 (  2322 PWs)   bands (ev):

    -6.8476  -6.8101   1.5361   1.6483   2.2389

 ------ SPIN DOWN ----------


          k =-0.0000-0.0000 0.0763 (  2305 PWs)   bands (ev):

     3.7062   9.8484   9.8484  11.6170  12.3465

          k =-0.0000-0.0000 0.2289 (  2318 PWs)   bands (ev):

     4.0210  10.1640  10.1640  10.2639  11.9043

          k =-0.0000-0.0000 0.3814 (  2348 PWs)   bands (ev):

     4.6503   8.4089  10.7944  10.7944  12.4667

          k =-0.0000-0.0000 0.5340 (  2342 PWs)   bands (ev):

     5.5931   6.8475  11.7368  11.7368  12.9665

          k = 0.0640 0.1108 0.0763 (  2308 PWs)   bands (ev):

     3.7814   9.1809   9.6771  11.8266  12.3826

          k = 0.0640 0.1108 0.2289 (  2318 PWs)   bands (ev):

     4.0963   9.4909   9.9927  10.3347  12.2073

          k = 0.0640 0.1108 0.3814 (  2323 PWs)   bands (ev):

     4.7258   8.4841  10.1139  10.6234  12.7025

          k = 0.0640 0.1108 0.5340 (  2339 PWs)   bands (ev):

     5.6688   6.9235  11.0329  11.5668  12.1995

          k = 0.1280 0.2217 0.0763 (  2302 PWs)   bands (ev):

     3.9890   8.1805   9.3644  11.4090  12.8248

          k = 0.1280 0.2217 0.2289 (  2313 PWs)   bands (ev):

     4.3042   8.4877   9.6801  10.5337  11.8132

          k = 0.1280 0.2217 0.3814 (  2325 PWs)   bands (ev):

     4.9343   8.6809   9.1255  10.3111  12.0375

          k = 0.1280 0.2217 0.5340 (  2314 PWs)   bands (ev):

     5.8783   7.1338  10.0197  11.1716  11.2562

          k = 0.1920 0.3325 0.0763 (  2312 PWs)   bands (ev):

     4.2534   7.3906   9.1272  11.1085  13.1110

          k = 0.1920 0.3325 0.2289 (  2311 PWs)   bands (ev):

     4.5693   7.6969   9.4429  10.8120  11.4356

          k = 0.1920 0.3325 0.3814 (  2304 PWs)   bands (ev):

     5.2008   8.2933   9.0043  10.0742  11.4084

          k = 0.1920 0.3325 0.5340 (  2303 PWs)   bands (ev):

     6.1469   7.4040   9.2276  10.3752  11.0202

          k =-0.2560-0.4434 0.0763 (  2300 PWs)   bands (ev):

     4.3918   7.0720   9.0423  11.0046  13.2467

          k =-0.2560-0.4434 0.2289 (  2310 PWs)   bands (ev):

     4.7082   7.3777   9.3581  11.0412  11.1997

          k =-0.2560-0.4434 0.3814 (  2308 PWs)   bands (ev):

     5.3407   7.9790   9.1549   9.9895  11.1291

          k =-0.2560-0.4434 0.5340 (  2316 PWs)   bands (ev):

     6.2886   7.5465   8.9092  10.0514  10.9357

          k = 0.1920 0.1108 0.0763 (  2301 PWs)   bands (ev):

     3.9234   8.5084   9.2769  12.0598  12.3997

          k = 0.1920 0.1108 0.2289 (  2316 PWs)   bands (ev):

     4.2385   8.8179   9.5789  10.5001  12.5690

          k = 0.1920 0.1108 0.3814 (  2323 PWs)   bands (ev):

     4.8684   8.6254   9.4339  10.2283  12.6591

          k = 0.1920 0.1108 0.5340 (  2320 PWs)   bands (ev):

     5.8121   7.0673  10.3433  11.0985  11.6182

          k = 0.2560 0.2217 0.0763 (  2300 PWs)   bands (ev):

     4.1653   7.7455   8.8340  11.8614  13.0000

          k = 0.2560 0.2217 0.2289 (  2313 PWs)   bands (ev):

     4.4809   8.0529   9.1385  10.7634  12.1886

          k = 0.2560 0.2217 0.3814 (  2317 PWs)   bands (ev):

     5.1118   8.6450   8.8948   9.7821  12.0532

          k = 0.2560 0.2217 0.5340 (  2313 PWs)   bands (ev):

     6.0572   7.3142   9.5705  10.4806  11.0500

          k = 0.3200 0.3325 0.0763 (  2306 PWs)   bands (ev):

     4.3846   7.2198   8.6077  11.6913  13.2416

          k = 0.3200 0.3325 0.2289 (  2304 PWs)   bands (ev):

     4.7009   7.5257   8.9148  11.0214  11.8920

          k = 0.3200 0.3325 0.3814 (  2313 PWs)   bands (ev):

     5.3333   8.1273   9.1328   9.5275  11.5864

          k = 0.3200 0.3325 0.5340 (  2313 PWs)   bands (ev):

     6.2813   7.5410   9.0428  10.0315  10.7468

          k = 0.3840 0.2217 0.0763 (  2308 PWs)   bands (ev):

     4.3774   7.4572   8.1713  12.7968  13.3253

          k = 0.3840 0.2217 0.2289 (  2311 PWs)   bands (ev):

     4.6937   7.7639   8.4749  11.0140  12.9459

          k = 0.3840 0.2217 0.3814 (  2315 PWs)   bands (ev):

     5.3261   8.3717   8.9767   9.2262  12.0238

          k = 0.3840 0.2217 0.5340 (  2319 PWs)   bands (ev):

     6.2741   7.5356   9.2519   9.8407  10.7861

          k = 0.4479 0.3325 0.0763 (  2301 PWs)   bands (ev):

     4.4809   7.3573   7.8997  12.9523  13.3414

          k = 0.4479 0.3325 0.2289 (  2304 PWs)   bands (ev):

     4.7976   7.6627   8.2046  11.1312  12.9726

          k = 0.4479 0.3325 0.3814 (  2315 PWs)   bands (ev):

     5.4310   8.2650   8.8027   9.2350  11.9621

          k = 0.4479 0.3325 0.5340 (  2322 PWs)   bands (ev):

     6.3809   7.6463   9.1365   9.5709  10.6892

     the Fermi energy is    -2.7587 ev

!    total energy              =      -1.99831759 Ry
     Harris-Foulkes estimate   =      -1.99831760 Ry
     estimated scf accuracy    <          7.1E-09 Ry

     total all-electron energy =        -1.998309 Ry

     The total energy is the sum of the following terms:

     one-electron contribution =      -0.44493676 Ry
     hartree contribution      =       0.49910799 Ry
     xc contribution           =      -1.23549358 Ry
     ewald contribution        =      -0.81658681 Ry
     one-center paw contrib.   =      -0.00040844 Ry
     smearing contrib. (-TS)   =       0.00000000 Ry

     total magnetization       =     2.00 Bohr mag/cell
     absolute magnetization    =     2.00 Bohr mag/cell

     convergence has been achieved in   5 iterations

     Forces acting on atoms (cartesian axes, Ry/au):

     atom    1 type  1   force =    -0.00000000   -0.00000000    0.00000000
     atom    2 type  1   force =     0.00000000    0.00000000   -0.00000000

     Total force =     0.000000     Total SCF correction =     0.000000


     Computing stress (Cartesian axis) and pressure

          total   stress  (Ry/bohr**3)                   (kbar)     P=   13.92
   0.00009402   0.00000000  -0.00000000         13.83      0.00     -0.00
   0.00000000   0.00009402  -0.00000000          0.00     13.83     -0.00
  -0.00000000  -0.00000000   0.00009588         -0.00     -0.00     14.10


     number of scf cycles    =  50
     number of bfgs steps    =   9

     enthalpy old            =      -1.9983154148 Ry
     enthalpy new            =      -1.9983175947 Ry

     CASE: enthalpy_new > enthalpy_old

     new trust radius        =       0.0061148976 bohr
     new conv_thr            =       0.0000000100 Ry

     new unit-cell volume =    629.97903 a.u.^3 (    93.35326 Ang^3 )
     density =      0.03584 g/cm^3

CELL_PARAMETERS (alat=  8.88171282)
   0.975521614  -0.563217667   0.000000000
   0.000000000   1.126435333   0.000000000
   0.000000000  -0.000000000   0.818262690

ATOMIC_POSITIONS (crystal)
H        0.666666667   0.333333333   0.750000000
H        0.333333333   0.666666667   0.250000000



     Writing output data file pw.save/
     NEW-OLD atomic charge density approx. for the potential
     extrapolated charge    1.99286, renormalised to    2.00000

     Writing output data file pw.save/

     init_run     :      1.41s CPU      1.28s WALL (       1 calls)
     electrons    :    446.31s CPU    406.73s WALL (      50 calls)
     update_pot   :     44.19s CPU     45.06s WALL (      50 calls)
     forces       :     16.92s CPU     17.68s WALL (      50 calls)
     stress       :     27.14s CPU     28.69s WALL (      50 calls)

     Called by init_run:
     wfcinit      :      0.78s CPU      0.58s WALL (       1 calls)
     potinit      :      0.30s CPU      0.33s WALL (       1 calls)
     hinit0       :      0.27s CPU      0.29s WALL (       1 calls)

     Called by electrons:
     c_bands      :    362.30s CPU    325.31s WALL (     216 calls)
     sum_band     :     65.44s CPU     61.17s WALL (     216 calls)
     v_of_rho     :     19.41s CPU     20.31s WALL (     230 calls)
     newd         :      0.86s CPU      0.85s WALL (     230 calls)
     PAW_pot      :      0.84s CPU      0.88s WALL (     280 calls)
     mix_rho      :      0.86s CPU      1.00s WALL (     216 calls)

     Called by c_bands:
     init_us_2    :      6.89s CPU      5.87s WALL (   46640 calls)
     cegterg      :    354.94s CPU    318.91s WALL (   17280 calls)

     Called by sum_band:
     sum_band:bec :      0.20s CPU      0.22s WALL (   21280 calls)
     addusdens    :      0.30s CPU      0.37s WALL (     216 calls)

     Called by *egterg:
     h_psi        :    312.14s CPU    267.76s WALL (   42096 calls)
     s_psi        :      3.14s CPU      2.44s WALL (   42096 calls)
     g_psi        :      1.59s CPU      1.43s WALL (   24736 calls)
     cdiaghg      :     12.91s CPU     24.74s WALL (   35136 calls)

     Called by h_psi:
     h_psi:pot    :    310.80s CPU    266.30s WALL (   42096 calls)
     h_psi:calbec :      5.22s CPU      4.35s WALL (   42096 calls)
     vloc_psi     :    302.12s CPU    258.14s WALL (   42096 calls)
     add_vuspsi   :      2.92s CPU      2.63s WALL (   42096 calls)

     General routines
     calbec       :      8.50s CPU      7.59s WALL (   83376 calls)
     fft          :      6.22s CPU      6.93s WALL (    6221 calls)
     ffts         :      0.69s CPU      0.64s WALL (     892 calls)
     fftw         :    316.78s CPU    274.26s WALL (  476060 calls)
     interpolate  :      0.66s CPU      0.87s WALL (     460 calls)
     davcio       :      0.00s CPU      0.01s WALL (      80 calls)

     Parallel routines
     fft_scatt_xy :     42.97s CPU     38.38s WALL (  483173 calls)
     fft_scatt_yz :     49.92s CPU     48.71s WALL (  483173 calls)

     PWSCF        :   8m59.28s CPU   8m23.28s WALL


   This run was terminated on:  13:21:23   7Nov2020            

=------------------------------------------------------------------------------=
   JOB DONE.
=------------------------------------------------------------------------------=
-------------------------------------------------------
Primary job  terminated normally, but 1 process returned
a non-zero exit code.. Per user-direction, the job has been aborted.
-------------------------------------------------------
--------------------------------------------------------------------------
mpirun detected that one or more processes exited with non-zero status, thus causing
the job to be terminated. The first process to do so was:

  Process name: [[15348,1],0]
  Exit code:    3
--------------------------------------------------------------------------
