--------------------------------------------------------------------------
WARNING: Linux kernel CMA support was requested via the
btl_vader_single_copy_mechanism MCA variable, but CMA support is
not available due to restrictive ptrace settings.

The vader shared memory BTL will fall back on another single-copy
mechanism if one is available. This may result in lower performance.

  Local host: DESKTOP-12SE80T
--------------------------------------------------------------------------

     Program PWSCF v.6.4.1 starts on  7Nov2020 at 14:24:40 

     This program is part of the open-source Quantum ESPRESSO suite
     for quantum simulation of materials; please cite
         "P. Giannozzi et al., J. Phys.:Condens. Matter 21 395502 (2009);
         "P. Giannozzi et al., J. Phys.:Condens. Matter 29 465901 (2017);
          URL http://www.quantum-espresso.org", 
     in publications or presentations arising from this work. More details at
     http://www.quantum-espresso.org/quote

     Parallel version (MPI), running on     2 processors

     MPI processes distributed on     1 nodes
     R & G space division:  proc/nbgrp/npool/nimage =       2
     Waiting for input...
     Reading input from standard input

     Current dimensions of program PWSCF are:
     Max number of different atomic species (ntypx) = 10
     Max number of k-points (npk) =  40000
     Max angular momentum in pseudopotentials (lmaxx) =  3
               file P.pbe-n-kjpaw_psl.1.0.0.UPF: wavefunction(s)  3S 3P renormalized

     Subspace diagonalization in iterative solution of the eigenvalue problem:
     a serial algorithm will be used

     Found symmetry operation: I + ( -0.5000  0.5000  0.0000)
     This is a supercell, fractional translations are disabled
     Message from routine setup:
     DEPRECATED: symmetry with ibrav=0, use correct ibrav instead

     Parallelization info
     --------------------
     sticks:   dense  smooth     PW     G-vecs:    dense   smooth      PW
     Min         893     716    217                21470    15235    2497
     Max         894     717    218                21471    15236    2498
     Sum        1787    1433    435                42941    30471    4995



     bravais-lattice index     =            0
     lattice parameter (alat)  =       6.2476  a.u.
     unit-cell volume          =    1139.7026 (a.u.)^3
     number of atoms/cell      =            8
     number of atomic types    =            1
     number of electrons       =        40.00
     number of Kohn-Sham states=           24
     kinetic-energy cutoff     =      34.0000  Ry
     charge density cutoff     =     171.0000  Ry
     convergence threshold     =      1.0E-06
     mixing beta               =       0.7000
     number of iterations used =            8  plain     mixing
     Exchange-correlation      = SLA PW PBX PBC ( 1  4  3  4 0 0)
     nstep                     =           50


     celldm(1)=   6.247642  celldm(2)=   0.000000  celldm(3)=   0.000000
     celldm(4)=   0.000000  celldm(5)=   0.000000  celldm(6)=   0.000000

     crystal axes: (cart. coord. in units of alat)
               a(1) = (   1.000000   0.000000   0.000000 )  
               a(2) = (   0.000000   3.394050   0.000000 )  
               a(3) = (   0.000000   0.000000   1.376971 )  

     reciprocal axes: (cart. coord. in units 2 pi/alat)
               b(1) = (  1.000000  0.000000  0.000000 )  
               b(2) = (  0.000000  0.294633  0.000000 )  
               b(3) = (  0.000000  0.000000  0.726232 )  


     PseudoPot. # 1 for P  read from file:
     ./potentials/P.pbe-n-kjpaw_psl.1.0.0.UPF
     MD5 check sum: 06b8cad1975795032ee26009bb7624c7
     Pseudo is Projector augmented-wave + core cor, Zval =  5.0
     Generated using "atomic" code by A. Dal Corso v.6.3
     Shape of augmentation charge: PSQ
     Using radial grid of 1147 points,  6 beta functions with: 
                l(1) =   0
                l(2) =   0
                l(3) =   1
                l(4) =   1
                l(5) =   2
                l(6) =   2
     Q(r) pseudized with 0 coefficients 


     atomic species   valence    mass     pseudopotential
        P              5.00    30.97300     P ( 1.00)

     Starting magnetic structure 
     atomic species   magnetization
        P            1.000

      4 Sym. Ops., with inversion, found



   Cartesian axes

     site n.     atom                  positions (alat units)
         1           P   tau(   1) = (   0.0000000   2.0177422   1.2578397  )
         2           P   tau(   2) = (   0.5000000   3.0733325   0.1191314  )
         3           P   tau(   3) = (   0.0000000   3.0733325   0.5693542  )
         4           P   tau(   4) = (   0.5000000   2.0177422   0.8076170  )
         5           P   tau(   5) = (   0.5000000   0.3207173   1.2578397  )
         6           P   tau(   6) = (   0.0000000   1.3763076   0.1191314  )
         7           P   tau(   7) = (   0.5000000   1.3763076   0.5693542  )
         8           P   tau(   8) = (   0.0000000   0.3207173   0.8076170  )

     number of k points=    30  Methfessel-Paxton smearing, width (Ry)=  0.0200
                       cart. coord. in units 2pi/alat
        k(    1) = (   0.0500000   0.0736583   0.0605193), wk =   0.0333333
        k(    2) = (   0.0500000   0.0736583   0.1815579), wk =   0.0333333
        k(    3) = (   0.0500000   0.0736583   0.3025965), wk =   0.0333333
        k(    4) = (   0.1500000   0.0736583   0.0605193), wk =   0.0333333
        k(    5) = (   0.1500000   0.0736583   0.1815579), wk =   0.0333333
        k(    6) = (   0.1500000   0.0736583   0.3025965), wk =   0.0333333
        k(    7) = (   0.2500000   0.0736583   0.0605193), wk =   0.0333333
        k(    8) = (   0.2500000   0.0736583   0.1815579), wk =   0.0333333
        k(    9) = (   0.2500000   0.0736583   0.3025965), wk =   0.0333333
        k(   10) = (   0.3500000   0.0736583   0.0605193), wk =   0.0333333
        k(   11) = (   0.3500000   0.0736583   0.1815579), wk =   0.0333333
        k(   12) = (   0.3500000   0.0736583   0.3025965), wk =   0.0333333
        k(   13) = (   0.4500000   0.0736583   0.0605193), wk =   0.0333333
        k(   14) = (   0.4500000   0.0736583   0.1815579), wk =   0.0333333
        k(   15) = (   0.4500000   0.0736583   0.3025965), wk =   0.0333333
        k(   16) = (  -0.0500000   0.0736583  -0.0605193), wk =   0.0333333
        k(   17) = (  -0.0500000   0.0736583  -0.1815579), wk =   0.0333333
        k(   18) = (  -0.0500000   0.0736583  -0.3025965), wk =   0.0333333
        k(   19) = (  -0.1500000   0.0736583  -0.0605193), wk =   0.0333333
        k(   20) = (  -0.1500000   0.0736583  -0.1815579), wk =   0.0333333
        k(   21) = (  -0.1500000   0.0736583  -0.3025965), wk =   0.0333333
        k(   22) = (  -0.2500000   0.0736583  -0.0605193), wk =   0.0333333
        k(   23) = (  -0.2500000   0.0736583  -0.1815579), wk =   0.0333333
        k(   24) = (  -0.2500000   0.0736583  -0.3025965), wk =   0.0333333
        k(   25) = (  -0.3500000   0.0736583  -0.0605193), wk =   0.0333333
        k(   26) = (  -0.3500000   0.0736583  -0.1815579), wk =   0.0333333
        k(   27) = (  -0.3500000   0.0736583  -0.3025965), wk =   0.0333333
        k(   28) = (  -0.4500000   0.0736583  -0.0605193), wk =   0.0333333
        k(   29) = (  -0.4500000   0.0736583  -0.1815579), wk =   0.0333333
        k(   30) = (  -0.4500000   0.0736583  -0.3025965), wk =   0.0333333

     Dense  grid:    42941 G-vectors     FFT dimensions: (  27,  90,  36)

     Smooth grid:    30471 G-vectors     FFT dimensions: (  24,  80,  32)

     Estimated max dynamical RAM per process >     137.54 MB

     Estimated total dynamical RAM >     275.09 MB
     Generating pointlists ...
     new r_m :   0.2775 (alat units)  1.7340 (a.u.) for type    1

     Initial potential from superposition of free atoms

     starting charge   39.99872, renormalised to   40.00000

     negative rho (up, down):  0.000E+00 2.497E-01
     Starting wfcs are   32 randomized atomic wfcs
     Checking if some PAW data can be deallocated... 

     total cpu time spent up to now is       10.4 secs

     Self-consistent Calculation

     iteration #  1     ecut=    34.00 Ry     beta= 0.70
     Davidson diagonalization with overlap
     ethr =  1.00E-02,  avg # of iterations =  3.0

     total cpu time spent up to now is       27.9 secs

     total energy              =    -442.87127056 Ry
     Harris-Foulkes estimate   =    -439.10098757 Ry
     estimated scf accuracy    <       0.79566242 Ry

     total magnetization       =     8.00 Bohr mag/cell
     absolute magnetization    =     8.00 Bohr mag/cell

     iteration #  2     ecut=    34.00 Ry     beta= 0.70
     Davidson diagonalization with overlap
     ethr =  1.99E-03,  avg # of iterations =  3.4

     total cpu time spent up to now is       48.0 secs

     total energy              =    -443.93482378 Ry
     Harris-Foulkes estimate   =    -443.65531789 Ry
     estimated scf accuracy    <       0.46269250 Ry

     total magnetization       =     1.28 Bohr mag/cell
     absolute magnetization    =     1.32 Bohr mag/cell

     iteration #  3     ecut=    34.00 Ry     beta= 0.70
     Davidson diagonalization with overlap
     ethr =  1.16E-03,  avg # of iterations =  2.1

     total cpu time spent up to now is       65.7 secs

     total energy              =    -444.25675479 Ry
     Harris-Foulkes estimate   =    -444.03853061 Ry
     estimated scf accuracy    <       0.07675991 Ry

     total magnetization       =     0.26 Bohr mag/cell
     absolute magnetization    =     0.44 Bohr mag/cell

     iteration #  4     ecut=    34.00 Ry     beta= 0.70
     Davidson diagonalization with overlap
     ethr =  1.92E-04,  avg # of iterations =  3.6

     total cpu time spent up to now is       84.6 secs

     total energy              =    -444.27541612 Ry
     Harris-Foulkes estimate   =    -444.27794731 Ry
     estimated scf accuracy    <       0.00931793 Ry

     total magnetization       =     0.01 Bohr mag/cell
     absolute magnetization    =     0.11 Bohr mag/cell

     iteration #  5     ecut=    34.00 Ry     beta= 0.70
     Davidson diagonalization with overlap
     ethr =  2.33E-05,  avg # of iterations =  6.6

     total cpu time spent up to now is      109.0 secs

     total energy              =    -444.27727024 Ry
     Harris-Foulkes estimate   =    -444.27931014 Ry
     estimated scf accuracy    <       0.00499355 Ry

     total magnetization       =    -0.02 Bohr mag/cell
     absolute magnetization    =     0.05 Bohr mag/cell

     iteration #  6     ecut=    34.00 Ry     beta= 0.70
     Davidson diagonalization with overlap
     ethr =  1.25E-05,  avg # of iterations =  5.3

     total cpu time spent up to now is      130.8 secs

     total energy              =    -444.27839296 Ry
     Harris-Foulkes estimate   =    -444.27846841 Ry
     estimated scf accuracy    <       0.00055574 Ry

     total magnetization       =    -0.01 Bohr mag/cell
     absolute magnetization    =     0.04 Bohr mag/cell

     iteration #  7     ecut=    34.00 Ry     beta= 0.70
     Davidson diagonalization with overlap
     ethr =  1.39E-06,  avg # of iterations =  6.0

     total cpu time spent up to now is      153.0 secs

     total energy              =    -444.27854866 Ry
     Harris-Foulkes estimate   =    -444.27853934 Ry
     estimated scf accuracy    <       0.00002361 Ry

     total magnetization       =     0.00 Bohr mag/cell
     absolute magnetization    =     0.02 Bohr mag/cell

     iteration #  8     ecut=    34.00 Ry     beta= 0.70
     Davidson diagonalization with overlap
     ethr =  5.90E-08,  avg # of iterations =  3.1

     total cpu time spent up to now is      172.3 secs

     total energy              =    -444.27856331 Ry
     Harris-Foulkes estimate   =    -444.27855655 Ry
     estimated scf accuracy    <       0.00000243 Ry

     total magnetization       =     0.00 Bohr mag/cell
     absolute magnetization    =     0.01 Bohr mag/cell

     iteration #  9     ecut=    34.00 Ry     beta= 0.70
     Davidson diagonalization with overlap
     ethr =  6.07E-09,  avg # of iterations =  3.8

     Magnetic moment per site:
     atom:    1    charge:    2.4675    magn:    0.0000    constr:    0.0000
     atom:    2    charge:    2.4661    magn:    0.0000    constr:    0.0000
     atom:    3    charge:    2.4675    magn:    0.0000    constr:    0.0000
     atom:    4    charge:    2.4661    magn:    0.0000    constr:    0.0000
     atom:    5    charge:    2.4661    magn:    0.0000    constr:    0.0000
     atom:    6    charge:    2.4675    magn:    0.0000    constr:    0.0000
     atom:    7    charge:    2.4661    magn:    0.0000    constr:    0.0000
     atom:    8    charge:    2.4675    magn:    0.0000    constr:    0.0000

     total cpu time spent up to now is      194.3 secs

     End of self-consistent calculation

 ------ SPIN UP ------------


          k = 0.0500 0.0737 0.0605 (  3794 PWs)   bands (ev):

    -9.1155  -9.0414  -6.7479  -6.5804  -3.2752  -3.2586  -0.1817  -0.0012
     1.1097   1.2210   1.4950   1.7292   2.3116   2.3701   3.7838   3.8915
     4.0426   4.6046   5.2112   5.9061   7.0191   7.4044   7.6661   7.8058

          k = 0.0500 0.0737 0.1816 (  3819 PWs)   bands (ev):

    -8.8392  -8.7717  -7.0539  -6.9772  -3.3592  -3.2259  -1.2004  -0.9844
     1.3462   1.8841   2.2984   2.3217   2.8245   2.9816   3.6056   3.6606
     4.0378   4.8853   5.0385   5.3007   7.6549   7.9927   8.0387   8.1922

          k = 0.0500 0.0737 0.3026 (  3832 PWs)   bands (ev):

    -8.3189  -8.2692  -7.6393  -7.6317  -3.0638  -2.8102  -2.2991  -2.0093
     1.9488   2.6709   2.7789   2.8710   2.9228   3.2322   3.2544   3.7720
     4.1516   4.2828   5.2611   5.3065   7.9802   7.9849   8.0815   8.1542

          k = 0.1500 0.0737 0.0605 (  3796 PWs)   bands (ev):

    -8.8786  -8.8053  -6.5025  -6.3365  -3.3904  -3.3849  -0.0480   0.0651
     0.9383   1.0149   1.1940   1.2379   1.7955   2.0521   2.9446   2.9569
     4.0835   4.6534   5.2438   5.8045   7.0893   7.5179   8.0224   8.1480

          k = 0.1500 0.0737 0.1816 (  3811 PWs)   bands (ev):

    -8.6048  -8.5381  -6.8212  -6.7471  -3.3645  -3.2383  -1.1167  -0.9226
     0.9948   1.1145   1.3989   1.9213   2.4920   2.6131   3.0609   3.2315
     4.1653   4.7254   4.9152   5.0647   7.7448   8.2389   8.4717   8.7149

          k = 0.1500 0.0737 0.3026 (  3808 PWs)   bands (ev):

    -8.0891  -8.0399  -7.4135  -7.4053  -2.9870  -2.7522  -2.1988  -1.9346
     1.3376   1.4354   1.8462   1.8486   2.2021   3.0070   3.0202   3.8063
     4.4353   4.4620   4.9108   5.0821   8.4950   8.5436   8.7264   8.8235

          k = 0.2500 0.0737 0.0605 (  3807 PWs)   bands (ev):

    -8.4098  -8.3383  -6.0170  -5.8554  -3.8273  -3.8059  -0.4334  -0.3851
     0.4367   0.4721   0.5911   0.9116   2.0176   2.3265   2.6333   2.7862
     3.9939   4.5400   5.1399   5.4122   6.9883   7.1755   7.6445   7.9950

          k = 0.2500 0.0737 0.1816 (  3819 PWs)   bands (ev):

    -8.1425  -8.0775  -6.3726  -6.3057  -3.5710  -3.4576  -1.2240  -1.1317
     0.0839   0.2265   0.8878   1.0049   2.2144   2.5299   3.1783   3.3017
     4.0409   4.3955   4.4939   4.9542   7.7137   7.9503   8.1793   8.2956

          k = 0.2500 0.0737 0.3026 (  3815 PWs)   bands (ev):

    -7.6394  -7.5916  -6.9775  -6.9680  -3.0152  -2.8353  -2.1922  -2.0144
     0.1802   0.3398   0.6084   0.7325   2.3768   2.9879   3.1100   3.5474
     4.1030   4.2203   4.5453   4.6983   8.0426   8.2301   8.7997   8.9000

          k = 0.3500 0.0737 0.0605 (  3818 PWs)   bands (ev):

    -7.7210  -7.6527  -5.3392  -5.2075  -4.6439  -4.5697  -1.7736  -1.6461
     0.3502   0.3882   0.8858   1.1291   2.4787   2.7255   2.7663   2.9791
     3.6824   4.1706   4.7417   4.8004   7.0374   7.0946   7.7148   7.7503

          k = 0.3500 0.0737 0.1816 (  3818 PWs)   bands (ev):

    -7.4693  -7.4078  -5.8022  -5.7552  -4.1427  -4.0271  -2.0921  -2.0523
    -0.1034   0.0498   0.8651   0.8752   2.2370   2.2869   3.0244   3.0468
     3.5550   4.2034   4.6718   4.8827   7.2628   7.4649   8.2213   8.3273

          k = 0.3500 0.0737 0.3026 (  3824 PWs)   bands (ev):

    -6.9999  -6.9555  -6.3897  -6.3792  -3.4813  -3.3751  -2.7348  -2.6807
    -0.1494   0.0783   0.2735   0.5056   2.1044   2.3887   2.5888   2.8410
     3.7825   4.2917   4.4882   4.8444   7.8260   8.4206   8.7633   8.8994

          k = 0.4500 0.0737 0.0605 (  3820 PWs)   bands (ev):

    -6.8377  -6.7750  -5.8208  -5.7685  -4.2685  -4.1043  -3.1116  -2.9594
     0.6998   0.7486   1.0280   1.1517   2.8572   2.8742   2.9243   2.9726
     3.7280   4.0337   4.1548   4.3742   6.9863   6.9909   7.1778   7.2727

          k = 0.4500 0.0737 0.1816 (  3817 PWs)   bands (ev):

    -6.6296  -6.5754  -5.8017  -5.7657  -4.2231  -4.1061  -3.2840  -3.1978
     0.3311   0.4897   0.9184   1.0514   1.8758   2.0397   2.4020   2.5413
     3.9390   4.4534   4.5795   4.7620   7.1403   7.4829   7.8236   8.1225

          k = 0.4500 0.0737 0.3026 (  3822 PWs)   bands (ev):

    -6.2757  -6.2421  -5.9266  -5.9253  -4.0213  -3.9629  -3.6227  -3.6182
     0.3078   0.5568   0.7556   0.9193   1.3291   1.4695   1.6761   1.9363
     4.2161   4.6059   4.6707   4.7102   7.9373   8.3213   8.3513   8.5879

          k =-0.0500 0.0737-0.0605 (  3794 PWs)   bands (ev):

    -9.1155  -9.0414  -6.7479  -6.5804  -3.2752  -3.2586  -0.1817  -0.0012
     1.1097   1.2210   1.4949   1.7293   2.3116   2.3701   3.7838   3.8915
     4.0426   4.6046   5.2112   5.9061   7.0191   7.4044   7.6662   7.8058

          k =-0.0500 0.0737-0.1816 (  3819 PWs)   bands (ev):

    -8.8392  -8.7717  -7.0539  -6.9772  -3.3592  -3.2259  -1.2004  -0.9844
     1.3462   1.8841   2.2984   2.3217   2.8245   2.9816   3.6056   3.6606
     4.0378   4.8853   5.0385   5.3007   7.6549   7.9927   8.0387   8.1922

          k =-0.0500 0.0737-0.3026 (  3832 PWs)   bands (ev):

    -8.3189  -8.2692  -7.6393  -7.6317  -3.0638  -2.8102  -2.2991  -2.0093
     1.9488   2.6709   2.7789   2.8711   2.9228   3.2322   3.2544   3.7721
     4.1516   4.2828   5.2611   5.3065   7.9802   7.9849   8.0815   8.1542

          k =-0.1500 0.0737-0.0605 (  3796 PWs)   bands (ev):

    -8.8786  -8.8053  -6.5025  -6.3365  -3.3904  -3.3849  -0.0480   0.0651
     0.9383   1.0149   1.1940   1.2379   1.7955   2.0521   2.9446   2.9569
     4.0835   4.6534   5.2438   5.8045   7.0893   7.5179   8.0224   8.1480

          k =-0.1500 0.0737-0.1816 (  3811 PWs)   bands (ev):

    -8.6048  -8.5381  -6.8212  -6.7471  -3.3645  -3.2383  -1.1167  -0.9226
     0.9948   1.1145   1.3989   1.9213   2.4920   2.6131   3.0608   3.2316
     4.1653   4.7254   4.9152   5.0646   7.7449   8.2390   8.4717   8.7149

          k =-0.1500 0.0737-0.3026 (  3808 PWs)   bands (ev):

    -8.0891  -8.0399  -7.4135  -7.4053  -2.9870  -2.7522  -2.1988  -1.9346
     1.3377   1.4354   1.8462   1.8486   2.2020   3.0070   3.0202   3.8063
     4.4353   4.4620   4.9108   5.0821   8.4950   8.5436   8.7263   8.8234

          k =-0.2500 0.0737-0.0605 (  3807 PWs)   bands (ev):

    -8.4098  -8.3383  -6.0170  -5.8554  -3.8273  -3.8059  -0.4334  -0.3851
     0.4367   0.4721   0.5911   0.9116   2.0177   2.3265   2.6332   2.7862
     3.9939   4.5400   5.1399   5.4121   6.9883   7.1755   7.6445   7.9949

          k =-0.2500 0.0737-0.1816 (  3819 PWs)   bands (ev):

    -8.1425  -8.0775  -6.3726  -6.3057  -3.5710  -3.4576  -1.2240  -1.1317
     0.0839   0.2265   0.8878   1.0049   2.2144   2.5299   3.1783   3.3017
     4.0409   4.3955   4.4939   4.9542   7.7137   7.9503   8.1793   8.2957

          k =-0.2500 0.0737-0.3026 (  3815 PWs)   bands (ev):

    -7.6394  -7.5916  -6.9775  -6.9680  -3.0151  -2.8353  -2.1923  -2.0144
     0.1802   0.3398   0.6084   0.7325   2.3768   2.9879   3.1100   3.5474
     4.1030   4.2203   4.5453   4.6983   8.0427   8.2301   8.7997   8.9000

          k =-0.3500 0.0737-0.0605 (  3818 PWs)   bands (ev):

    -7.7210  -7.6527  -5.3393  -5.2075  -4.6439  -4.5697  -1.7736  -1.6461
     0.3502   0.3881   0.8858   1.1291   2.4788   2.7254   2.7662   2.9792
     3.6824   4.1707   4.7416   4.8004   7.0374   7.0946   7.7148   7.7503

          k =-0.3500 0.0737-0.1816 (  3818 PWs)   bands (ev):

    -7.4693  -7.4078  -5.8022  -5.7552  -4.1427  -4.0271  -2.0921  -2.0523
    -0.1034   0.0498   0.8651   0.8752   2.2370   2.2869   3.0244   3.0468
     3.5550   4.2034   4.6718   4.8827   7.2628   7.4649   8.2213   8.3273

          k =-0.3500 0.0737-0.3026 (  3824 PWs)   bands (ev):

    -6.9999  -6.9555  -6.3897  -6.3792  -3.4813  -3.3751  -2.7348  -2.6806
    -0.1494   0.0782   0.2735   0.5056   2.1044   2.3887   2.5888   2.8410
     3.7825   4.2917   4.4882   4.8444   7.8260   8.4206   8.7633   8.8994

          k =-0.4500 0.0737-0.0605 (  3820 PWs)   bands (ev):

    -6.8377  -6.7750  -5.8208  -5.7685  -4.2685  -4.1043  -3.1116  -2.9594
     0.6998   0.7486   1.0280   1.1517   2.8572   2.8743   2.9244   2.9726
     3.7280   4.0338   4.1548   4.3742   6.9863   6.9909   7.1778   7.2726

          k =-0.4500 0.0737-0.1816 (  3817 PWs)   bands (ev):

    -6.6296  -6.5754  -5.8018  -5.7657  -4.2231  -4.1061  -3.2840  -3.1978
     0.3311   0.4897   0.9184   1.0514   1.8758   2.0397   2.4020   2.5413
     3.9389   4.4535   4.5794   4.7620   7.1403   7.4829   7.8236   8.1225

          k =-0.4500 0.0737-0.3026 (  3822 PWs)   bands (ev):

    -6.2757  -6.2421  -5.9266  -5.9253  -4.0213  -3.9629  -3.6227  -3.6182
     0.3078   0.5568   0.7556   0.9194   1.3291   1.4695   1.6761   1.9363
     4.2161   4.6059   4.6708   4.7101   7.9373   8.3212   8.3513   8.5880

 ------ SPIN DOWN ----------


          k = 0.0500 0.0737 0.0605 (  3794 PWs)   bands (ev):

    -9.1152  -9.0411  -6.7475  -6.5800  -3.2749  -3.2584  -0.1813  -0.0009
     1.1105   1.2220   1.4956   1.7296   2.3115   2.3700   3.7837   3.8913
     4.0428   4.6053   5.2129   5.9077   7.0196   7.4051   7.6669   7.8067

          k = 0.0500 0.0737 0.1816 (  3819 PWs)   bands (ev):

    -8.8388  -8.7713  -7.0535  -6.9768  -3.3590  -3.2257  -1.2001  -0.9842
     1.3473   1.8849   2.2989   2.3218   2.8248   2.9817   3.6054   3.6604
     4.0392   4.8867   5.0390   5.3015   7.6557   7.9935   8.0393   8.1931

          k = 0.0500 0.0737 0.3026 (  3832 PWs)   bands (ev):

    -8.3185  -8.2689  -7.6390  -7.6314  -3.0636  -2.8101  -2.2989  -2.0091
     1.9499   2.6711   2.7789   2.8722   2.9236   3.2321   3.2543   3.7727
     4.1529   4.2834   5.2620   5.3071   7.9811   7.9859   8.0825   8.1551

          k = 0.1500 0.0737 0.0605 (  3796 PWs)   bands (ev):

    -8.8783  -8.8050  -6.5021  -6.3361  -3.3901  -3.3847  -0.0476   0.0655
     0.9392   1.0154   1.1944   1.2379   1.7958   2.0523   2.9447   2.9570
     4.0839   4.6542   5.2455   5.8063   7.0896   7.5186   8.0225   8.1481

          k = 0.1500 0.0737 0.1816 (  3811 PWs)   bands (ev):

    -8.6044  -8.5377  -6.8208  -6.7468  -3.3642  -3.2381  -1.1164  -0.9223
     0.9950   1.1148   1.3997   1.9219   2.4921   2.6133   3.0612   3.2317
     4.1669   4.7260   4.9166   5.0657   7.7452   8.2391   8.4718   8.7154

          k = 0.1500 0.0737 0.3026 (  3808 PWs)   bands (ev):

    -8.0887  -8.0396  -7.4131  -7.4049  -2.9868  -2.7520  -2.1985  -1.9344
     1.3378   1.4355   1.8463   1.8489   2.2028   3.0079   3.0213   3.8069
     4.4359   4.4633   4.9114   5.0830   8.4952   8.5439   8.7266   8.8242

          k = 0.2500 0.0737 0.0605 (  3807 PWs)   bands (ev):

    -8.4094  -8.3379  -6.0166  -5.8550  -3.8270  -3.8056  -0.4329  -0.3845
     0.4368   0.4722   0.5913   0.9117   2.0181   2.3268   2.6337   2.7866
     3.9946   4.5411   5.1416   5.4139   6.9882   7.1754   7.6447   7.9954

          k = 0.2500 0.0737 0.1816 (  3819 PWs)   bands (ev):

    -8.1421  -8.0772  -6.3722  -6.3053  -3.5707  -3.4573  -1.2236  -1.1313
     0.0840   0.2266   0.8880   1.0049   2.2150   2.5305   3.1787   3.3019
     4.0416   4.3972   4.4949   4.9560   7.7139   7.9503   8.1794   8.2958

          k = 0.2500 0.0737 0.3026 (  3815 PWs)   bands (ev):

    -7.6390  -7.5912  -6.9771  -6.9676  -3.0149  -2.8350  -2.1919  -2.0141
     0.1803   0.3399   0.6085   0.7326   2.3776   2.9885   3.1107   3.5477
     4.1038   4.2214   4.5465   4.6998   8.0431   8.2301   8.8000   8.9004

          k = 0.3500 0.0737 0.0605 (  3818 PWs)   bands (ev):

    -7.7207  -7.6524  -5.3389  -5.2072  -4.6436  -4.5694  -1.7731  -1.6456
     0.3501   0.3881   0.8859   1.1290   2.4792   2.7259   2.7668   2.9797
     3.6835   4.1720   4.7433   4.8020   7.0373   7.0945   7.7151   7.7507

          k = 0.3500 0.0737 0.1816 (  3818 PWs)   bands (ev):

    -7.4689  -7.4075  -5.8018  -5.7548  -4.1424  -4.0268  -2.0917  -2.0518
    -0.1034   0.0497   0.8650   0.8751   2.2375   2.2872   3.0246   3.0471
     3.5562   4.2048   4.6736   4.8845   7.2632   7.4650   8.2212   8.3276

          k = 0.3500 0.0737 0.3026 (  3824 PWs)   bands (ev):

    -6.9996  -6.9551  -6.3893  -6.3788  -3.4809  -3.3748  -2.7344  -2.6803
    -0.1494   0.0782   0.2735   0.5056   2.1047   2.3889   2.5891   2.8411
     3.7838   4.2933   4.4897   4.8462   7.8267   8.4209   8.7642   8.8991

          k = 0.4500 0.0737 0.0605 (  3820 PWs)   bands (ev):

    -6.8374  -6.7746  -5.8204  -5.7682  -4.2680  -4.1039  -3.1112  -2.9590
     0.6997   0.7485   1.0279   1.1515   2.8579   2.8748   2.9250   2.9732
     3.7293   4.0352   4.1563   4.3758   6.9866   6.9912   7.1781   7.2729

          k = 0.4500 0.0737 0.1816 (  3817 PWs)   bands (ev):

    -6.6292  -6.5751  -5.8014  -5.7654  -4.2227  -4.1057  -3.2836  -3.1974
     0.3311   0.4896   0.9183   1.0512   1.8763   2.0402   2.4023   2.5416
     3.9404   4.4550   4.5811   4.7638   7.1408   7.4832   7.8242   8.1230

          k = 0.4500 0.0737 0.3026 (  3822 PWs)   bands (ev):

    -6.2753  -6.2417  -5.9262  -5.9250  -4.0209  -3.9625  -3.6223  -3.6178
     0.3078   0.5567   0.7556   0.9191   1.3295   1.4697   1.6763   1.9365
     4.2176   4.6076   4.6724   4.7119   7.9382   8.3221   8.3521   8.5890

          k =-0.0500 0.0737-0.0605 (  3794 PWs)   bands (ev):

    -9.1152  -9.0411  -6.7475  -6.5800  -3.2749  -3.2584  -0.1813  -0.0009
     1.1105   1.2220   1.4955   1.7296   2.3115   2.3700   3.7837   3.8913
     4.0428   4.6053   5.2129   5.9077   7.0196   7.4050   7.6669   7.8067

          k =-0.0500 0.0737-0.1816 (  3819 PWs)   bands (ev):

    -8.8388  -8.7713  -7.0535  -6.9768  -3.3590  -3.2257  -1.2001  -0.9842
     1.3473   1.8849   2.2988   2.3218   2.8247   2.9817   3.6054   3.6604
     4.0393   4.8867   5.0390   5.3015   7.6557   7.9935   8.0393   8.1931

          k =-0.0500 0.0737-0.3026 (  3832 PWs)   bands (ev):

    -8.3185  -8.2689  -7.6390  -7.6314  -3.0636  -2.8101  -2.2989  -2.0091
     1.9499   2.6711   2.7789   2.8722   2.9236   3.2321   3.2543   3.7727
     4.1528   4.2834   5.2620   5.3071   7.9811   7.9859   8.0824   8.1551

          k =-0.1500 0.0737-0.0605 (  3796 PWs)   bands (ev):

    -8.8783  -8.8050  -6.5021  -6.3361  -3.3901  -3.3847  -0.0476   0.0654
     0.9392   1.0154   1.1943   1.2379   1.7958   2.0523   2.9447   2.9570
     4.0839   4.6542   5.2455   5.8063   7.0896   7.5186   8.0225   8.1481

          k =-0.1500 0.0737-0.1816 (  3811 PWs)   bands (ev):

    -8.6044  -8.5377  -6.8208  -6.7468  -3.3642  -3.2381  -1.1164  -0.9223
     0.9950   1.1147   1.3998   1.9219   2.4921   2.6134   3.0612   3.2318
     4.1669   4.7260   4.9166   5.0656   7.7452   8.2391   8.4718   8.7154

          k =-0.1500 0.0737-0.3026 (  3808 PWs)   bands (ev):

    -8.0887  -8.0396  -7.4131  -7.4049  -2.9868  -2.7521  -2.1985  -1.9343
     1.3378   1.4355   1.8463   1.8490   2.2028   3.0079   3.0213   3.8069
     4.4360   4.4633   4.9114   5.0830   8.4952   8.5439   8.7267   8.8242

          k =-0.2500 0.0737-0.0605 (  3807 PWs)   bands (ev):

    -8.4094  -8.3379  -6.0166  -5.8550  -3.8270  -3.8056  -0.4329  -0.3845
     0.4368   0.4722   0.5913   0.9117   2.0181   2.3268   2.6337   2.7867
     3.9946   4.5411   5.1417   5.4139   6.9882   7.1754   7.6447   7.9954

          k =-0.2500 0.0737-0.1816 (  3819 PWs)   bands (ev):

    -8.1421  -8.0772  -6.3722  -6.3053  -3.5707  -3.4573  -1.2236  -1.1313
     0.0840   0.2266   0.8880   1.0049   2.2150   2.5305   3.1786   3.3019
     4.0416   4.3972   4.4950   4.9559   7.7139   7.9503   8.1794   8.2958

          k =-0.2500 0.0737-0.3026 (  3815 PWs)   bands (ev):

    -7.6390  -7.5912  -6.9771  -6.9676  -3.0149  -2.8351  -2.1919  -2.0141
     0.1803   0.3399   0.6085   0.7326   2.3776   2.9885   3.1107   3.5477
     4.1038   4.2214   4.5466   4.6998   8.0431   8.2301   8.8000   8.9004

          k =-0.3500 0.0737-0.0605 (  3818 PWs)   bands (ev):

    -7.7207  -7.6524  -5.3389  -5.2072  -4.6436  -4.5694  -1.7731  -1.6456
     0.3501   0.3881   0.8859   1.1290   2.4793   2.7258   2.7668   2.9797
     3.6834   4.1720   4.7433   4.8021   7.0373   7.0945   7.7151   7.7507

          k =-0.3500 0.0737-0.1816 (  3818 PWs)   bands (ev):

    -7.4689  -7.4075  -5.8018  -5.7548  -4.1424  -4.0268  -2.0917  -2.0518
    -0.1034   0.0497   0.8650   0.8751   2.2375   2.2872   3.0246   3.0471
     3.5561   4.2048   4.6737   4.8845   7.2633   7.4650   8.2212   8.3276

          k =-0.3500 0.0737-0.3026 (  3824 PWs)   bands (ev):

    -6.9996  -6.9551  -6.3893  -6.3788  -3.4809  -3.3748  -2.7344  -2.6803
    -0.1494   0.0782   0.2735   0.5056   2.1047   2.3889   2.5891   2.8412
     3.7838   4.2933   4.4898   4.8462   7.8267   8.4209   8.7642   8.8992

          k =-0.4500 0.0737-0.0605 (  3820 PWs)   bands (ev):

    -6.8374  -6.7746  -5.8204  -5.7682  -4.2680  -4.1039  -3.1112  -2.9590
     0.6997   0.7485   1.0279   1.1515   2.8578   2.8749   2.9251   2.9731
     3.7293   4.0353   4.1562   4.3758   6.9866   6.9912   7.1781   7.2728

          k =-0.4500 0.0737-0.1816 (  3817 PWs)   bands (ev):

    -6.6292  -6.5751  -5.8014  -5.7654  -4.2227  -4.1057  -3.2836  -3.1974
     0.3311   0.4896   0.9183   1.0512   1.8763   2.0402   2.4023   2.5416
     3.9403   4.4551   4.5810   4.7639   7.1408   7.4832   7.8242   8.1230

          k =-0.4500 0.0737-0.3026 (  3822 PWs)   bands (ev):

    -6.2753  -6.2417  -5.9262  -5.9250  -4.0209  -3.9625  -3.6223  -3.6178
     0.3078   0.5567   0.7555   0.9191   1.3295   1.4697   1.6763   1.9365
     4.2176   4.6077   4.6725   4.7119   7.9382   8.3221   8.3521   8.5890

     the Fermi energy is     6.8128 ev

!    total energy              =    -444.27856583 Ry
     Harris-Foulkes estimate   =    -444.27856566 Ry
     estimated scf accuracy    <       0.00000017 Ry

     total all-electron energy =     -5473.586081 Ry

     The total energy is the sum of the following terms:

     one-electron contribution =       7.90849585 Ry
     hartree contribution      =      15.71159439 Ry
     xc contribution           =     -34.74845977 Ry
     ewald contribution        =     -97.08482518 Ry
     one-center paw contrib.   =    -336.06640007 Ry
     smearing contrib. (-TS)   =       0.00102894 Ry

     total magnetization       =     0.00 Bohr mag/cell
     absolute magnetization    =     0.00 Bohr mag/cell

     convergence has been achieved in   9 iterations

     Forces acting on atoms (cartesian axes, Ry/au):

     atom    1 type  1   force =     0.00000000    0.00150011    0.00141452
     atom    2 type  1   force =     0.00000000   -0.00152649   -0.00143296
     atom    3 type  1   force =     0.00000000   -0.00151838    0.00143892
     atom    4 type  1   force =     0.00000000    0.00149399   -0.00142011
     atom    5 type  1   force =     0.00000000    0.00152649    0.00143296
     atom    6 type  1   force =     0.00000000   -0.00150011   -0.00141452
     atom    7 type  1   force =     0.00000000   -0.00149399    0.00142011
     atom    8 type  1   force =     0.00000000    0.00151838   -0.00143892

     Total force =     0.005875     Total SCF correction =     0.000255


     Computing stress (Cartesian axis) and pressure

          total   stress  (Ry/bohr**3)                   (kbar)     P=    3.25
   0.00002133   0.00000000   0.00000000          3.14      0.00      0.00
   0.00000000   0.00002252  -0.00000003          0.00      3.31     -0.00
   0.00000000  -0.00000003   0.00002245          0.00     -0.00      3.30


     BFGS Geometry Optimization

     number of scf cycles    =   1
     number of bfgs steps    =   0

     enthalpy new            =    -444.2785658314 Ry

     new trust radius        =       0.0038009394 bohr
     new conv_thr            =       0.0000010000 Ry

     new unit-cell volume =   1141.59251 a.u.^3 (   169.16655 Ang^3 )
     density =      2.43225 g/cm^3

CELL_PARAMETERS (alat=  6.24764247)
   1.000533228   0.000000000   0.000000000
   0.000000000   3.395960463  -0.000002767
   0.000000000  -0.000001123   1.377743792

ATOMIC_POSITIONS (crystal)
P        0.000000000   0.594564744   0.913647425
P        0.500000000   0.905434012   0.086350431
P        0.000000000   0.905434395   0.413650261
P        0.500000000   0.594564455   0.586351925
P        0.500000000   0.094565988   0.913649569
P        0.000000000   0.405435256   0.086352575
P        0.500000000   0.405435545   0.413648075
P        0.000000000   0.094565605   0.586349739



     Writing output data file pw.save/
     NEW-OLD atomic charge density approx. for the potential
     extrapolated charge   40.06622, renormalised to   40.00000

     total cpu time spent up to now is      218.7 secs

     Self-consistent Calculation

     iteration #  1     ecut=    34.00 Ry     beta= 0.70
     Davidson diagonalization with overlap
     ethr =  1.00E-06,  avg # of iterations =  3.0

     total cpu time spent up to now is      240.4 secs

     total energy              =    -444.27850847 Ry
     Harris-Foulkes estimate   =    -444.29374717 Ry
     estimated scf accuracy    <       0.00008812 Ry

     total magnetization       =    -0.00 Bohr mag/cell
     absolute magnetization    =     0.00 Bohr mag/cell

     iteration #  2     ecut=    34.00 Ry     beta= 0.70
     Davidson diagonalization with overlap
     ethr =  2.20E-07,  avg # of iterations =  3.8

     total cpu time spent up to now is      264.2 secs

     total energy              =    -444.27860173 Ry
     Harris-Foulkes estimate   =    -444.27871287 Ry
     estimated scf accuracy    <       0.00029976 Ry

     total magnetization       =    -0.00 Bohr mag/cell
     absolute magnetization    =     0.00 Bohr mag/cell

     iteration #  3     ecut=    34.00 Ry     beta= 0.70
     Davidson diagonalization with overlap
     ethr =  2.20E-07,  avg # of iterations =  2.0

     total cpu time spent up to now is      281.9 secs

     total energy              =    -444.27862276 Ry
     Harris-Foulkes estimate   =    -444.27863018 Ry
     estimated scf accuracy    <       0.00003048 Ry

     total magnetization       =    -0.00 Bohr mag/cell
     absolute magnetization    =     0.00 Bohr mag/cell

     iteration #  4     ecut=    34.00 Ry     beta= 0.70
     Davidson diagonalization with overlap
     ethr =  7.62E-08,  avg # of iterations =  1.0

     total cpu time spent up to now is      296.4 secs

     total energy              =    -444.27862048 Ry
     Harris-Foulkes estimate   =    -444.27862400 Ry
     estimated scf accuracy    <       0.00001433 Ry

     total magnetization       =    -0.00 Bohr mag/cell
     absolute magnetization    =     0.00 Bohr mag/cell

     iteration #  5     ecut=    34.00 Ry     beta= 0.70
     Davidson diagonalization with overlap
     ethr =  3.58E-08,  avg # of iterations =  3.0

     total cpu time spent up to now is      314.5 secs

     total energy              =    -444.27862235 Ry
     Harris-Foulkes estimate   =    -444.27862246 Ry
     estimated scf accuracy    <       0.00000232 Ry

     total magnetization       =    -0.00 Bohr mag/cell
     absolute magnetization    =     0.00 Bohr mag/cell

     iteration #  6     ecut=    34.00 Ry     beta= 0.70
     Davidson diagonalization with overlap
     ethr =  5.81E-09,  avg # of iterations =  1.4

     total cpu time spent up to now is      329.8 secs

     total energy              =    -444.27862241 Ry
     Harris-Foulkes estimate   =    -444.27862242 Ry
     estimated scf accuracy    <       0.00000208 Ry

     total magnetization       =    -0.00 Bohr mag/cell
     absolute magnetization    =     0.00 Bohr mag/cell

     iteration #  7     ecut=    34.00 Ry     beta= 0.70
     Davidson diagonalization with overlap
     ethr =  5.20E-09,  avg # of iterations =  1.0

     total cpu time spent up to now is      344.4 secs

     total energy              =    -444.27862155 Ry
     Harris-Foulkes estimate   =    -444.27862243 Ry
     estimated scf accuracy    <       0.00000207 Ry

     total magnetization       =    -0.00 Bohr mag/cell
     absolute magnetization    =     0.00 Bohr mag/cell

     iteration #  8     ecut=    34.00 Ry     beta= 0.70
     Davidson diagonalization with overlap
     ethr =  5.17E-09,  avg # of iterations =  2.0

     Magnetic moment per site:
     atom:    1    charge:    2.4692    magn:    0.0000    constr:    0.0000
     atom:    2    charge:    2.4678    magn:    0.0000    constr:    0.0000
     atom:    3    charge:    2.4692    magn:    0.0000    constr:    0.0000
     atom:    4    charge:    2.4679    magn:    0.0000    constr:    0.0000
     atom:    5    charge:    2.4678    magn:    0.0000    constr:    0.0000
     atom:    6    charge:    2.4692    magn:    0.0000    constr:    0.0000
     atom:    7    charge:    2.4679    magn:    0.0000    constr:    0.0000
     atom:    8    charge:    2.4692    magn:    0.0000    constr:    0.0000

     total cpu time spent up to now is      361.8 secs

     End of self-consistent calculation

 ------ SPIN UP ------------


          k = 0.0500 0.0736 0.0605 (  3794 PWs)   bands (ev):

    -9.1129  -9.0386  -6.7516  -6.5840  -3.2857  -3.2690  -0.1891  -0.0123
     1.0953   1.1972   1.4810   1.7194   2.3076   2.3662   3.7744   3.8838
     4.0264   4.5850   5.1920   5.8856   6.9956   7.3849   7.6572   7.7956

          k = 0.0500 0.0736 0.1815 (  3819 PWs)   bands (ev):

    -8.8370  -8.7693  -7.0560  -6.9792  -3.3700  -3.2372  -1.2140  -0.9970
     1.3297   1.8723   2.2879   2.3154   2.8166   2.9727   3.5983   3.6537
     4.0214   4.8667   5.0197   5.2817   7.6338   7.9823   8.0246   8.1724

          k = 0.0500 0.0736 0.3024 (  3832 PWs)   bands (ev):

    -8.3176  -8.2678  -7.6394  -7.6318  -3.0757  -2.8226  -2.3121  -2.0224
     1.9341   2.6634   2.7725   2.8571   2.9094   3.2262   3.2484   3.7563
     4.1389   4.2706   5.2464   5.2913   7.9610   7.9636   8.0628   8.1376

          k = 0.1499 0.0736 0.0605 (  3796 PWs)   bands (ev):

    -8.8763  -8.8028  -6.5065  -6.3404  -3.4008  -3.3952  -0.0571   0.0514
     0.9171   1.0045   1.1843   1.2350   1.7890   2.0439   2.9371   2.9481
     4.0669   4.6344   5.2239   5.7838   7.0661   7.4977   8.0020   8.1276

          k = 0.1499 0.0736 0.1815 (  3811 PWs)   bands (ev):

    -8.6029  -8.5361  -6.8237  -6.7494  -3.3755  -3.2497  -1.1312  -0.9362
     0.9911   1.1095   1.3857   1.9091   2.4851   2.6050   3.0511   3.2210
     4.1486   4.7085   4.8962   5.0471   7.7205   8.2162   8.4482   8.6915

          k = 0.1499 0.0736 0.3024 (  3808 PWs)   bands (ev):

    -8.0881  -8.0389  -7.4140  -7.4058  -2.9993  -2.7649  -2.2122  -1.9482
     1.3339   1.4316   1.8414   1.8423   2.1892   2.9915   3.0044   3.7899
     4.4227   4.4494   4.8951   5.0667   8.4722   8.5162   8.7037   8.8002

          k = 0.2499 0.0736 0.0605 (  3807 PWs)   bands (ev):

    -8.4082  -8.3365  -6.0217  -5.8599  -3.8363  -3.8150  -0.4495  -0.4020
     0.4347   0.4685   0.5860   0.9052   2.0097   2.3169   2.6202   2.7722
     3.9788   4.5231   5.1205   5.3929   6.9671   7.1555   7.6207   7.9738

          k = 0.2499 0.0736 0.1815 (  3819 PWs)   bands (ev):

    -8.1413  -8.0763  -6.3757  -6.3087  -3.5812  -3.4679  -1.2389  -1.1462
     0.0817   0.2242   0.8818   0.9999   2.2005   2.5158   3.1678   3.2895
     4.0260   4.3792   4.4773   4.9365   7.6887   7.9287   8.1558   8.2712

          k = 0.2499 0.0736 0.3024 (  3815 PWs)   bands (ev):

    -7.6392  -7.5913  -6.9787  -6.9692  -3.0270  -2.8472  -2.2056  -2.0276
     0.1776   0.3371   0.6051   0.7291   2.3611   2.9722   3.0936   3.5323
     4.0885   4.2067   4.5297   4.6831   8.0180   8.2093   8.7762   8.8764

          k = 0.3498 0.0736 0.0605 (  3818 PWs)   bands (ev):

    -7.7205  -7.6521  -5.3448  -5.2130  -4.6501  -4.5759  -1.7857  -1.6584
     0.3471   0.3851   0.8794   1.1230   2.4691   2.7141   2.7507   2.9635
     3.6686   4.1553   4.7250   4.7828   7.0145   7.0733   7.6899   7.7285

          k = 0.3498 0.0736 0.1815 (  3818 PWs)   bands (ev):

    -7.4693  -7.4077  -5.8063  -5.7593  -4.1500  -4.0342  -2.1030  -2.0633
    -0.1072   0.0457   0.8588   0.8691   2.2218   2.2724   3.0110   3.0352
     3.5404   4.1868   4.6552   4.8658   7.2394   7.4441   8.1989   8.3051

          k = 0.3498 0.0736 0.3024 (  3824 PWs)   bands (ev):

    -7.0009  -6.9564  -6.3922  -6.3816  -3.4896  -3.3831  -2.7444  -2.6899
    -0.1542   0.0730   0.2676   0.4997   2.0896   2.3747   2.5741   2.8272
     3.7672   4.2755   4.4708   4.8265   7.8039   8.4005   8.7408   8.8788

          k = 0.4498 0.0736 0.0605 (  3820 PWs)   bands (ev):

    -6.8388  -6.7759  -5.8240  -5.7717  -4.2757  -4.1113  -3.1209  -2.9686
     0.6951   0.7440   1.0222   1.1461   2.8440   2.8606   2.9112   2.9587
     3.7131   4.0187   4.1393   4.3583   6.9671   6.9685   7.1573   7.2541

          k = 0.4498 0.0736 0.1815 (  3817 PWs)   bands (ev):

    -6.6312  -6.5770  -5.8055  -5.7695  -4.2289  -4.1116  -3.2917  -3.2054
     0.3252   0.4835   0.9119   1.0452   1.8612   2.0263   2.3883   2.5287
     3.9223   4.4361   4.5616   4.7441   7.1209   7.4645   7.8051   8.1044

          k = 0.4498 0.0736 0.3024 (  3822 PWs)   bands (ev):

    -6.2784  -6.2448  -5.9304  -5.9291  -4.0260  -3.9674  -3.6283  -3.6238
     0.3001   0.5490   0.7475   0.9129   1.3146   1.4564   1.6629   1.9237
     4.1985   4.5874   4.6519   4.6912   7.9180   8.3028   8.3328   8.5680

          k =-0.0500 0.0736-0.0605 (  3794 PWs)   bands (ev):

    -9.1129  -9.0386  -6.7516  -6.5840  -3.2857  -3.2690  -0.1891  -0.0123
     1.0953   1.1972   1.4810   1.7194   2.3076   2.3662   3.7744   3.8838
     4.0264   4.5850   5.1920   5.8855   6.9956   7.3849   7.6572   7.7956

          k =-0.0500 0.0736-0.1815 (  3819 PWs)   bands (ev):

    -8.8370  -8.7693  -7.0560  -6.9792  -3.3700  -3.2372  -1.2140  -0.9970
     1.3297   1.8723   2.2879   2.3154   2.8166   2.9727   3.5983   3.6537
     4.0214   4.8667   5.0197   5.2817   7.6338   7.9823   8.0246   8.1724

          k =-0.0500 0.0736-0.3024 (  3832 PWs)   bands (ev):

    -8.3176  -8.2678  -7.6394  -7.6318  -3.0757  -2.8226  -2.3121  -2.0224
     1.9341   2.6634   2.7725   2.8571   2.9094   3.2262   3.2484   3.7563
     4.1389   4.2706   5.2464   5.2913   7.9610   7.9636   8.0628   8.1376

          k =-0.1499 0.0736-0.0605 (  3796 PWs)   bands (ev):

    -8.8763  -8.8028  -6.5065  -6.3404  -3.4008  -3.3952  -0.0571   0.0514
     0.9171   1.0045   1.1843   1.2350   1.7890   2.0439   2.9371   2.9481
     4.0669   4.6344   5.2239   5.7838   7.0661   7.4977   8.0020   8.1276

          k =-0.1499 0.0736-0.1815 (  3811 PWs)   bands (ev):

    -8.6029  -8.5361  -6.8237  -6.7494  -3.3755  -3.2497  -1.1312  -0.9362
     0.9911   1.1095   1.3857   1.9091   2.4851   2.6050   3.0511   3.2210
     4.1486   4.7085   4.8962   5.0471   7.7205   8.2163   8.4482   8.6915

          k =-0.1499 0.0736-0.3024 (  3808 PWs)   bands (ev):

    -8.0881  -8.0389  -7.4140  -7.4058  -2.9993  -2.7649  -2.2122  -1.9482
     1.3339   1.4316   1.8414   1.8423   2.1892   2.9915   3.0044   3.7899
     4.4227   4.4493   4.8951   5.0667   8.4722   8.5162   8.7037   8.8002

          k =-0.2499 0.0736-0.0605 (  3807 PWs)   bands (ev):

    -8.4082  -8.3365  -6.0217  -5.8599  -3.8363  -3.8150  -0.4495  -0.4020
     0.4347   0.4685   0.5860   0.9052   2.0097   2.3168   2.6202   2.7722
     3.9788   4.5231   5.1205   5.3929   6.9671   7.1555   7.6207   7.9738

          k =-0.2499 0.0736-0.1815 (  3819 PWs)   bands (ev):

    -8.1413  -8.0763  -6.3757  -6.3087  -3.5812  -3.4679  -1.2389  -1.1462
     0.0817   0.2242   0.8818   0.9999   2.2005   2.5158   3.1678   3.2895
     4.0260   4.3792   4.4773   4.9365   7.6887   7.9287   8.1558   8.2712

          k =-0.2499 0.0736-0.3024 (  3815 PWs)   bands (ev):

    -7.6392  -7.5913  -6.9787  -6.9692  -3.0270  -2.8472  -2.2056  -2.0276
     0.1776   0.3371   0.6051   0.7291   2.3611   2.9722   3.0936   3.5323
     4.0885   4.2067   4.5297   4.6831   8.0180   8.2093   8.7762   8.8764

          k =-0.3498 0.0736-0.0605 (  3818 PWs)   bands (ev):

    -7.7205  -7.6521  -5.3448  -5.2130  -4.6501  -4.5759  -1.7857  -1.6584
     0.3471   0.3851   0.8794   1.1230   2.4691   2.7141   2.7507   2.9635
     3.6686   4.1553   4.7250   4.7828   7.0145   7.0733   7.6899   7.7286

          k =-0.3498 0.0736-0.1815 (  3818 PWs)   bands (ev):

    -7.4693  -7.4077  -5.8063  -5.7593  -4.1500  -4.0342  -2.1030  -2.0633
    -0.1072   0.0456   0.8588   0.8691   2.2218   2.2724   3.0110   3.0352
     3.5404   4.1868   4.6552   4.8658   7.2394   7.4441   8.1989   8.3052

          k =-0.3498 0.0736-0.3024 (  3824 PWs)   bands (ev):

    -7.0009  -6.9564  -6.3922  -6.3816  -3.4896  -3.3831  -2.7444  -2.6899
    -0.1542   0.0730   0.2676   0.4997   2.0896   2.3747   2.5741   2.8272
     3.7672   4.2755   4.4708   4.8265   7.8039   8.4005   8.7408   8.8788

          k =-0.4498 0.0736-0.0605 (  3820 PWs)   bands (ev):

    -6.8388  -6.7759  -5.8240  -5.7717  -4.2757  -4.1113  -3.1209  -2.9686
     0.6951   0.7440   1.0222   1.1461   2.8440   2.8606   2.9112   2.9587
     3.7131   4.0187   4.1393   4.3583   6.9671   6.9685   7.1573   7.2541

          k =-0.4498 0.0736-0.1815 (  3817 PWs)   bands (ev):

    -6.6312  -6.5770  -5.8055  -5.7695  -4.2289  -4.1116  -3.2917  -3.2054
     0.3252   0.4835   0.9119   1.0452   1.8612   2.0263   2.3883   2.5287
     3.9223   4.4361   4.5616   4.7441   7.1209   7.4645   7.8051   8.1044

          k =-0.4498 0.0736-0.3024 (  3822 PWs)   bands (ev):

    -6.2784  -6.2448  -5.9304  -5.9291  -4.0260  -3.9674  -3.6283  -3.6238
     0.3001   0.5490   0.7475   0.9129   1.3146   1.4564   1.6629   1.9237
     4.1985   4.5874   4.6519   4.6912   7.9179   8.3028   8.3328   8.5680

 ------ SPIN DOWN ----------


          k = 0.0500 0.0736 0.0605 (  3794 PWs)   bands (ev):

    -9.1129  -9.0386  -6.7516  -6.5840  -3.2858  -3.2690  -0.1891  -0.0123
     1.0953   1.1972   1.4810   1.7194   2.3076   2.3662   3.7744   3.8838
     4.0264   4.5850   5.1920   5.8856   6.9955   7.3849   7.6572   7.7956

          k = 0.0500 0.0736 0.1815 (  3819 PWs)   bands (ev):

    -8.8370  -8.7693  -7.0560  -6.9792  -3.3700  -3.2372  -1.2140  -0.9970
     1.3297   1.8723   2.2879   2.3154   2.8166   2.9727   3.5983   3.6537
     4.0214   4.8667   5.0197   5.2817   7.6338   7.9823   8.0247   8.1724

          k = 0.0500 0.0736 0.3024 (  3832 PWs)   bands (ev):

    -8.3176  -8.2678  -7.6394  -7.6318  -3.0757  -2.8226  -2.3121  -2.0224
     1.9341   2.6634   2.7725   2.8571   2.9094   3.2262   3.2484   3.7563
     4.1389   4.2706   5.2464   5.2913   7.9610   7.9636   8.0628   8.1376

          k = 0.1499 0.0736 0.0605 (  3796 PWs)   bands (ev):

    -8.8763  -8.8028  -6.5065  -6.3404  -3.4008  -3.3952  -0.0571   0.0514
     0.9171   1.0045   1.1843   1.2350   1.7890   2.0439   2.9371   2.9481
     4.0669   4.6344   5.2239   5.7838   7.0661   7.4976   8.0020   8.1276

          k = 0.1499 0.0736 0.1815 (  3811 PWs)   bands (ev):

    -8.6029  -8.5361  -6.8237  -6.7494  -3.3755  -3.2497  -1.1312  -0.9362
     0.9911   1.1095   1.3857   1.9091   2.4851   2.6050   3.0511   3.2210
     4.1486   4.7085   4.8962   5.0471   7.7205   8.2162   8.4481   8.6915

          k = 0.1499 0.0736 0.3024 (  3808 PWs)   bands (ev):

    -8.0881  -8.0389  -7.4140  -7.4058  -2.9993  -2.7649  -2.2122  -1.9482
     1.3339   1.4316   1.8414   1.8423   2.1892   2.9915   3.0045   3.7899
     4.4227   4.4494   4.8951   5.0667   8.4722   8.5162   8.7037   8.8007

          k = 0.2499 0.0736 0.0605 (  3807 PWs)   bands (ev):

    -8.4082  -8.3365  -6.0217  -5.8599  -3.8363  -3.8150  -0.4495  -0.4020
     0.4347   0.4685   0.5860   0.9052   2.0097   2.3169   2.6202   2.7722
     3.9789   4.5231   5.1205   5.3929   6.9671   7.1555   7.6207   7.9738

          k = 0.2499 0.0736 0.1815 (  3819 PWs)   bands (ev):

    -8.1413  -8.0763  -6.3757  -6.3087  -3.5812  -3.4679  -1.2389  -1.1462
     0.0817   0.2242   0.8818   0.9999   2.2005   2.5158   3.1678   3.2895
     4.0260   4.3792   4.4773   4.9365   7.6887   7.9287   8.1558   8.2712

          k = 0.2499 0.0736 0.3024 (  3815 PWs)   bands (ev):

    -7.6392  -7.5913  -6.9787  -6.9692  -3.0270  -2.8472  -2.2056  -2.0276
     0.1776   0.3371   0.6051   0.7291   2.3611   2.9722   3.0936   3.5323
     4.0885   4.2067   4.5297   4.6831   8.0180   8.2093   8.7762   8.8764

          k = 0.3498 0.0736 0.0605 (  3818 PWs)   bands (ev):

    -7.7205  -7.6521  -5.3448  -5.2130  -4.6502  -4.5759  -1.7857  -1.6584
     0.3471   0.3851   0.8794   1.1230   2.4691   2.7141   2.7507   2.9635
     3.6686   4.1553   4.7250   4.7828   7.0145   7.0733   7.6899   7.7285

          k = 0.3498 0.0736 0.1815 (  3818 PWs)   bands (ev):

    -7.4693  -7.4077  -5.8063  -5.7593  -4.1500  -4.0342  -2.1030  -2.0633
    -0.1072   0.0456   0.8588   0.8691   2.2218   2.2724   3.0110   3.0352
     3.5404   4.1868   4.6552   4.8658   7.2394   7.4441   8.1989   8.3051

          k = 0.3498 0.0736 0.3024 (  3824 PWs)   bands (ev):

    -7.0010  -6.9564  -6.3922  -6.3816  -3.4896  -3.3831  -2.7444  -2.6899
    -0.1542   0.0730   0.2676   0.4997   2.0896   2.3747   2.5741   2.8272
     3.7672   4.2755   4.4709   4.8265   7.8039   8.4005   8.7408   8.8787

          k = 0.4498 0.0736 0.0605 (  3820 PWs)   bands (ev):

    -6.8388  -6.7759  -5.8240  -5.7717  -4.2757  -4.1113  -3.1209  -2.9686
     0.6951   0.7440   1.0222   1.1461   2.8440   2.8606   2.9112   2.9587
     3.7131   4.0187   4.1393   4.3583   6.9671   6.9685   7.1573   7.2541

          k = 0.4498 0.0736 0.1815 (  3817 PWs)   bands (ev):

    -6.6312  -6.5770  -5.8055  -5.7695  -4.2289  -4.1116  -3.2917  -3.2054
     0.3252   0.4835   0.9119   1.0452   1.8612   2.0263   2.3883   2.5287
     3.9223   4.4361   4.5616   4.7441   7.1209   7.4645   7.8051   8.1044

          k = 0.4498 0.0736 0.3024 (  3822 PWs)   bands (ev):

    -6.2784  -6.2448  -5.9304  -5.9291  -4.0260  -3.9674  -3.6283  -3.6238
     0.3001   0.5490   0.7475   0.9129   1.3145   1.4564   1.6629   1.9236
     4.1985   4.5874   4.6519   4.6912   7.9180   8.3027   8.3328   8.5680

          k =-0.0500 0.0736-0.0605 (  3794 PWs)   bands (ev):

    -9.1129  -9.0386  -6.7516  -6.5840  -3.2858  -3.2690  -0.1891  -0.0123
     1.0953   1.1972   1.4810   1.7194   2.3076   2.3662   3.7744   3.8838
     4.0264   4.5850   5.1920   5.8856   6.9956   7.3849   7.6572   7.7956

          k =-0.0500 0.0736-0.1815 (  3819 PWs)   bands (ev):

    -8.8370  -8.7693  -7.0560  -6.9792  -3.3700  -3.2372  -1.2140  -0.9970
     1.3297   1.8723   2.2879   2.3154   2.8166   2.9727   3.5983   3.6537
     4.0214   4.8667   5.0197   5.2817   7.6338   7.9823   8.0246   8.1724

          k =-0.0500 0.0736-0.3024 (  3832 PWs)   bands (ev):

    -8.3176  -8.2678  -7.6394  -7.6318  -3.0757  -2.8226  -2.3121  -2.0224
     1.9341   2.6634   2.7725   2.8571   2.9094   3.2262   3.2484   3.7563
     4.1389   4.2706   5.2464   5.2913   7.9610   7.9636   8.0628   8.1376

          k =-0.1499 0.0736-0.0605 (  3796 PWs)   bands (ev):

    -8.8763  -8.8028  -6.5065  -6.3404  -3.4008  -3.3952  -0.0571   0.0514
     0.9171   1.0045   1.1843   1.2350   1.7890   2.0439   2.9371   2.9481
     4.0669   4.6344   5.2240   5.7838   7.0661   7.4977   8.0020   8.1276

          k =-0.1499 0.0736-0.1815 (  3811 PWs)   bands (ev):

    -8.6029  -8.5361  -6.8237  -6.7494  -3.3755  -3.2497  -1.1312  -0.9362
     0.9911   1.1095   1.3857   1.9091   2.4851   2.6050   3.0511   3.2210
     4.1486   4.7085   4.8962   5.0471   7.7205   8.2163   8.4482   8.6915

          k =-0.1499 0.0736-0.3024 (  3808 PWs)   bands (ev):

    -8.0881  -8.0389  -7.4140  -7.4058  -2.9993  -2.7649  -2.2122  -1.9482
     1.3339   1.4316   1.8414   1.8423   2.1892   2.9915   3.0045   3.7899
     4.4227   4.4493   4.8951   5.0667   8.4722   8.5162   8.7037   8.8007

          k =-0.2499 0.0736-0.0605 (  3807 PWs)   bands (ev):

    -8.4082  -8.3365  -6.0217  -5.8599  -3.8363  -3.8150  -0.4495  -0.4020
     0.4347   0.4685   0.5860   0.9052   2.0097   2.3168   2.6202   2.7722
     3.9788   4.5231   5.1205   5.3929   6.9671   7.1555   7.6207   7.9738

          k =-0.2499 0.0736-0.1815 (  3819 PWs)   bands (ev):

    -8.1413  -8.0763  -6.3757  -6.3087  -3.5812  -3.4679  -1.2389  -1.1462
     0.0817   0.2242   0.8818   0.9999   2.2005   2.5158   3.1678   3.2895
     4.0260   4.3792   4.4773   4.9365   7.6887   7.9287   8.1558   8.2712

          k =-0.2499 0.0736-0.3024 (  3815 PWs)   bands (ev):

    -7.6392  -7.5913  -6.9787  -6.9692  -3.0270  -2.8472  -2.2056  -2.0276
     0.1776   0.3371   0.6051   0.7291   2.3611   2.9722   3.0936   3.5323
     4.0885   4.2067   4.5297   4.6831   8.0180   8.2093   8.7762   8.8764

          k =-0.3498 0.0736-0.0605 (  3818 PWs)   bands (ev):

    -7.7205  -7.6521  -5.3448  -5.2130  -4.6501  -4.5759  -1.7857  -1.6584
     0.3471   0.3851   0.8794   1.1230   2.4691   2.7141   2.7507   2.9635
     3.6686   4.1553   4.7250   4.7828   7.0145   7.0733   7.6899   7.7286

          k =-0.3498 0.0736-0.1815 (  3818 PWs)   bands (ev):

    -7.4693  -7.4077  -5.8063  -5.7593  -4.1500  -4.0342  -2.1030  -2.0633
    -0.1072   0.0456   0.8588   0.8691   2.2218   2.2724   3.0110   3.0352
     3.5404   4.1868   4.6552   4.8658   7.2394   7.4441   8.1989   8.3052

          k =-0.3498 0.0736-0.3024 (  3824 PWs)   bands (ev):

    -7.0010  -6.9564  -6.3922  -6.3816  -3.4896  -3.3831  -2.7444  -2.6899
    -0.1542   0.0730   0.2676   0.4997   2.0896   2.3747   2.5741   2.8272
     3.7672   4.2755   4.4709   4.8265   7.8039   8.4005   8.7408   8.8787

          k =-0.4498 0.0736-0.0605 (  3820 PWs)   bands (ev):

    -6.8388  -6.7759  -5.8240  -5.7717  -4.2757  -4.1113  -3.1209  -2.9686
     0.6951   0.7440   1.0222   1.1461   2.8440   2.8606   2.9112   2.9587
     3.7131   4.0187   4.1393   4.3583   6.9671   6.9685   7.1573   7.2541

          k =-0.4498 0.0736-0.1815 (  3817 PWs)   bands (ev):

    -6.6312  -6.5770  -5.8055  -5.7695  -4.2289  -4.1116  -3.2917  -3.2054
     0.3252   0.4835   0.9119   1.0452   1.8612   2.0263   2.3883   2.5287
     3.9223   4.4361   4.5616   4.7441   7.1209   7.4645   7.8051   8.1044

          k =-0.4498 0.0736-0.3024 (  3822 PWs)   bands (ev):

    -6.2784  -6.2448  -5.9304  -5.9291  -4.0260  -3.9674  -3.6283  -3.6238
     0.3001   0.5490   0.7475   0.9129   1.3146   1.4564   1.6629   1.9236
     4.1985   4.5874   4.6519   4.6912   7.9179   8.3028   8.3328   8.5680

     the Fermi energy is     6.7909 ev

!    total energy              =    -444.27862173 Ry
     Harris-Foulkes estimate   =    -444.27862183 Ry
     estimated scf accuracy    <       0.00000013 Ry

     total all-electron energy =     -5473.586137 Ry

     The total energy is the sum of the following terms:

     one-electron contribution =       7.91544085 Ry
     hartree contribution      =      15.68693680 Ry
     xc contribution           =     -34.73686234 Ry
     ewald contribution        =     -97.08006417 Ry
     one-center paw contrib.   =    -336.06509817 Ry
     smearing contrib. (-TS)   =       0.00102530 Ry

     total magnetization       =    -0.00 Bohr mag/cell
     absolute magnetization    =     0.00 Bohr mag/cell

     convergence has been achieved in   8 iterations

     Forces acting on atoms (cartesian axes, Ry/au):

     atom    1 type  1   force =     0.00000000    0.00068429    0.00053410
     atom    2 type  1   force =     0.00000000   -0.00067714   -0.00052621
     atom    3 type  1   force =     0.00000000   -0.00067958    0.00052587
     atom    4 type  1   force =     0.00000000    0.00068612   -0.00053363
     atom    5 type  1   force =     0.00000000    0.00067714    0.00052621
     atom    6 type  1   force =    -0.00000000   -0.00068429   -0.00053410
     atom    7 type  1   force =     0.00000000   -0.00068612    0.00053363
     atom    8 type  1   force =    -0.00000000    0.00067958   -0.00052587

     Total force =     0.002442     Total SCF correction =     0.000801
     SCF correction compared to forces is large: reduce conv_thr to get better values


     Computing stress (Cartesian axis) and pressure

          total   stress  (Ry/bohr**3)                   (kbar)     P=    1.46
   0.00000955   0.00000000   0.00000000          1.41      0.00      0.00
   0.00000000   0.00001197   0.00000001          0.00      1.76      0.00
   0.00000000   0.00000001   0.00000832          0.00      0.00      1.22


     number of scf cycles    =   2
     number of bfgs steps    =   1

     enthalpy old            =    -444.2785658314 Ry
     enthalpy new            =    -444.2786217289 Ry

     CASE: enthalpy_new < enthalpy_old

     new trust radius        =       0.0036176712 bohr
     new conv_thr            =       0.0000000100 Ry

     new unit-cell volume =   1143.12001 a.u.^3 (   169.39291 Ang^3 )
     density =      2.42900 g/cm^3

CELL_PARAMETERS (alat=  6.24764247)
   1.000961654   0.000000000   0.000000000
   0.000000000   3.397778514  -0.000001953
   0.000000000  -0.000000792   1.378258931

ATOMIC_POSITIONS (crystal)
P        0.000000000   0.594622585   0.913759016
P        0.500000000   0.905376754   0.086240440
P        0.000000000   0.905376937   0.413760190
P        0.500000000   0.594622446   0.586240423
P        0.500000000   0.094623246   0.913759560
P       -0.000000000   0.405377415   0.086240984
P        0.500000000   0.405377554   0.413759577
P       -0.000000000   0.094623063   0.586239810



     Writing output data file pw.save/
     NEW-OLD atomic charge density approx. for the potential
     extrapolated charge   40.05345, renormalised to   40.00000

     total cpu time spent up to now is      386.3 secs

     Self-consistent Calculation

     iteration #  1     ecut=    34.00 Ry     beta= 0.70
     Davidson diagonalization with overlap
     ethr =  1.00E-06,  avg # of iterations =  3.0

     total cpu time spent up to now is      406.5 secs

     total energy              =    -444.27855705 Ry
     Harris-Foulkes estimate   =    -444.29088177 Ry
     estimated scf accuracy    <       0.00006402 Ry

     total magnetization       =    -0.00 Bohr mag/cell
     absolute magnetization    =     0.00 Bohr mag/cell

     iteration #  2     ecut=    34.00 Ry     beta= 0.70
     Davidson diagonalization with overlap
     ethr =  1.60E-07,  avg # of iterations =  3.9

     total cpu time spent up to now is      429.5 secs

     total energy              =    -444.27862094 Ry
     Harris-Foulkes estimate   =    -444.27869815 Ry
     estimated scf accuracy    <       0.00020443 Ry

     total magnetization       =    -0.00 Bohr mag/cell
     absolute magnetization    =     0.00 Bohr mag/cell

     iteration #  3     ecut=    34.00 Ry     beta= 0.70
     Davidson diagonalization with overlap
     ethr =  1.60E-07,  avg # of iterations =  2.0

     total cpu time spent up to now is      447.1 secs

     total energy              =    -444.27863674 Ry
     Harris-Foulkes estimate   =    -444.27864122 Ry
     estimated scf accuracy    <       0.00001884 Ry

     total magnetization       =    -0.00 Bohr mag/cell
     absolute magnetization    =     0.00 Bohr mag/cell

     iteration #  4     ecut=    34.00 Ry     beta= 0.70
     Davidson diagonalization with overlap
     ethr =  4.71E-08,  avg # of iterations =  1.0

     total cpu time spent up to now is      461.7 secs

     total energy              =    -444.27863522 Ry
     Harris-Foulkes estimate   =    -444.27863753 Ry
     estimated scf accuracy    <       0.00000912 Ry

     total magnetization       =    -0.00 Bohr mag/cell
     absolute magnetization    =     0.00 Bohr mag/cell

     iteration #  5     ecut=    34.00 Ry     beta= 0.70
     Davidson diagonalization with overlap
     ethr =  2.28E-08,  avg # of iterations =  3.0

     total cpu time spent up to now is      480.0 secs

     total energy              =    -444.27863661 Ry
     Harris-Foulkes estimate   =    -444.27863654 Ry
     estimated scf accuracy    <       0.00000136 Ry

     total magnetization       =    -0.00 Bohr mag/cell
     absolute magnetization    =     0.00 Bohr mag/cell

     iteration #  6     ecut=    34.00 Ry     beta= 0.70
     Davidson diagonalization with overlap
     ethr =  3.40E-09,  avg # of iterations =  1.2

     total cpu time spent up to now is      494.8 secs

     total energy              =    -444.27863663 Ry
     Harris-Foulkes estimate   =    -444.27863665 Ry
     estimated scf accuracy    <       0.00000161 Ry

     total magnetization       =    -0.00 Bohr mag/cell
     absolute magnetization    =     0.00 Bohr mag/cell

     iteration #  7     ecut=    34.00 Ry     beta= 0.70
     Davidson diagonalization with overlap
     ethr =  3.40E-09,  avg # of iterations =  1.0

     total cpu time spent up to now is      509.4 secs

     total energy              =    -444.27863606 Ry
     Harris-Foulkes estimate   =    -444.27863665 Ry
     estimated scf accuracy    <       0.00000165 Ry

     total magnetization       =    -0.00 Bohr mag/cell
     absolute magnetization    =     0.00 Bohr mag/cell

     iteration #  8     ecut=    34.00 Ry     beta= 0.70
     Davidson diagonalization with overlap
     ethr =  3.40E-09,  avg # of iterations =  2.0

     total cpu time spent up to now is      526.4 secs

     total energy              =    -444.27863614 Ry
     Harris-Foulkes estimate   =    -444.27863621 Ry
     estimated scf accuracy    <       0.00000029 Ry

     total magnetization       =    -0.00 Bohr mag/cell
     absolute magnetization    =     0.00 Bohr mag/cell

     iteration #  9     ecut=    34.00 Ry     beta= 0.70
     Davidson diagonalization with overlap
     ethr =  7.30E-10,  avg # of iterations =  2.3

     total cpu time spent up to now is      542.7 secs

     total energy              =    -444.27863616 Ry
     Harris-Foulkes estimate   =    -444.27863616 Ry
     estimated scf accuracy    <       0.00000007 Ry

     total magnetization       =    -0.00 Bohr mag/cell
     absolute magnetization    =     0.00 Bohr mag/cell

     iteration # 10     ecut=    34.00 Ry     beta= 0.70
     Davidson diagonalization with overlap
     ethr =  1.71E-10,  avg # of iterations =  2.0

     total cpu time spent up to now is      558.3 secs

     total energy              =    -444.27863613 Ry
     Harris-Foulkes estimate   =    -444.27863616 Ry
     estimated scf accuracy    <       0.00000006 Ry

     total magnetization       =    -0.00 Bohr mag/cell
     absolute magnetization    =     0.00 Bohr mag/cell

     iteration # 11     ecut=    34.00 Ry     beta= 0.70
     Davidson diagonalization with overlap
     ethr =  1.40E-10,  avg # of iterations =  2.7

     Magnetic moment per site:
     atom:    1    charge:    2.4706    magn:    0.0000    constr:    0.0000
     atom:    2    charge:    2.4693    magn:   -0.0000    constr:    0.0000
     atom:    3    charge:    2.4706    magn:    0.0000    constr:    0.0000
     atom:    4    charge:    2.4693    magn:    0.0000    constr:    0.0000
     atom:    5    charge:    2.4693    magn:   -0.0000    constr:    0.0000
     atom:    6    charge:    2.4706    magn:    0.0000    constr:    0.0000
     atom:    7    charge:    2.4693    magn:    0.0000    constr:    0.0000
     atom:    8    charge:    2.4706    magn:    0.0000    constr:    0.0000

     total cpu time spent up to now is      576.9 secs

     End of self-consistent calculation

 ------ SPIN UP ------------


          k = 0.0500 0.0736 0.0605 (  3794 PWs)   bands (ev):

    -9.1109  -9.0365  -6.7562  -6.5884  -3.2918  -3.2749  -0.1952  -0.0213
     1.0838   1.1779   1.4703   1.7122   2.3036   2.3622   3.7651   3.8758
     4.0131   4.5687   5.1766   5.8686   6.9755   7.3677   7.6488   7.7861

          k = 0.0500 0.0736 0.1814 (  3819 PWs)   bands (ev):

    -8.8354  -8.7676  -7.0588  -6.9818  -3.3772  -3.2448  -1.2249  -1.0070
     1.3159   1.8627   2.2791   2.3100   2.8103   2.9661   3.5908   3.6466
     4.0076   4.8508   5.0050   5.2663   7.6156   7.9725   8.0126   8.1559

          k = 0.0500 0.0736 0.3023 (  3832 PWs)   bands (ev):

    -8.3168  -8.2670  -7.6401  -7.6325  -3.0845  -2.8319  -2.3222  -2.0328
     1.9217   2.6566   2.7666   2.8453   2.8979   3.2203   3.2424   3.7438
     4.1283   4.2617   5.2349   5.2800   7.9443   7.9457   8.0468   8.1230

          k = 0.1499 0.0736 0.0605 (  3796 PWs)   bands (ev):

    -8.8746  -8.8010  -6.5114  -6.3451  -3.4070  -3.4013  -0.0646   0.0402
     0.8996   0.9956   1.1763   1.2321   1.7839   2.0379   2.9298   2.9399
     4.0534   4.6186   5.2079   5.7667   7.0464   7.4801   7.9873   8.1127

          k = 0.1499 0.0736 0.1814 (  3811 PWs)   bands (ev):

    -8.6016  -8.5346  -6.8267  -6.7523  -3.3829  -3.2576  -1.1428  -0.9471
     0.9876   1.1047   1.3744   1.8981   2.4783   2.5978   3.0439   3.2135
     4.1345   4.6953   4.8801   5.0326   7.7003   8.1986   8.4303   8.6727

          k = 0.1499 0.0736 0.3023 (  3808 PWs)   bands (ev):

    -8.0876  -8.0383  -7.4148  -7.4067  -3.0084  -2.7744  -2.2228  -1.9589
     1.3300   1.4276   1.8358   1.8364   2.1785   2.9787   2.9914   3.7770
     4.4130   4.4385   4.8829   5.0541   8.4550   8.4939   8.6861   8.7825

          k = 0.2498 0.0736 0.0605 (  3807 PWs)   bands (ev):

    -8.4070  -8.3352  -6.0270  -5.8651  -3.8419  -3.8207  -0.4634  -0.4166
     0.4328   0.4651   0.5818   0.8998   2.0038   2.3098   2.6095   2.7606
     3.9666   4.5088   5.1047   5.3770   6.9507   7.1407   7.6012   7.9557

          k = 0.2498 0.0736 0.1814 (  3819 PWs)   bands (ev):

    -8.1405  -8.0754  -6.3792  -6.3119  -3.5885  -3.4754  -1.2512  -1.1582
     0.0794   0.2217   0.8760   0.9947   2.1890   2.5047   3.1601   3.2805
     4.0141   4.3655   4.4634   4.9213   7.6681   7.9122   8.1380   8.2526

          k = 0.2498 0.0736 0.3023 (  3815 PWs)   bands (ev):

    -7.6392  -7.5912  -6.9800  -6.9706  -3.0361  -2.8564  -2.2164  -2.0384
     0.1749   0.3342   0.6014   0.7253   2.3484   2.9599   3.0806   3.5206
     4.0766   4.1952   4.5162   4.6696   7.9988   8.1946   8.7581   8.8577

          k = 0.3497 0.0736 0.0605 (  3818 PWs)   bands (ev):

    -7.7201  -7.6516  -5.3505  -5.2183  -4.6547  -4.5807  -1.7968  -1.6697
     0.3451   0.3831   0.8745   1.1183   2.4619   2.7056   2.7385   2.9510
     3.6570   4.1422   4.7110   4.7682   6.9969   7.0574   7.6698   7.7116

          k = 0.3497 0.0736 0.1814 (  3818 PWs)   bands (ev):

    -7.4693  -7.4076  -5.8101  -5.7629  -4.1560  -4.0401  -2.1129  -2.0733
    -0.1102   0.0424   0.8533   0.8640   2.2101   2.2616   3.0007   3.0262
     3.5279   4.1724   4.6411   4.8513   7.2208   7.4289   8.1813   8.2869

          k = 0.3497 0.0736 0.3023 (  3824 PWs)   bands (ev):

    -7.0018  -6.9572  -6.3942  -6.3837  -3.4967  -3.3901  -2.7528  -2.6981
    -0.1583   0.0685   0.2624   0.4944   2.0783   2.3640   2.5628   2.8164
     3.7539   4.2614   4.4556   4.8109   7.7860   8.3864   8.7219   8.8631

          k = 0.4496 0.0736 0.0605 (  3820 PWs)   bands (ev):

    -6.8395  -6.7765  -5.8261  -5.7738  -4.2831  -4.1187  -3.1298  -2.9775
     0.6922   0.7411   1.0183   1.1424   2.8333   2.8501   2.9007   2.9478
     3.7004   4.0058   4.1262   4.3448   6.9509   6.9524   7.1416   7.2402

          k = 0.4496 0.0736 0.1814 (  3817 PWs)   bands (ev):

    -6.6323  -6.5780  -5.8081  -5.7720  -4.2351  -4.1176  -3.2993  -3.2129
     0.3210   0.4790   0.9072   1.0406   1.8497   2.0155   2.3774   2.5188
     3.9079   4.4212   4.5463   4.7287   7.1059   7.4511   7.7911   8.0913

          k = 0.4496 0.0736 0.3023 (  3822 PWs)   bands (ev):

    -6.2803  -6.2466  -5.9330  -5.9317  -4.0312  -3.9724  -3.6341  -3.6295
     0.2941   0.5428   0.7409   0.9076   1.3033   1.4464   1.6525   1.9136
     4.1834   4.5716   4.6357   4.6749   7.9013   8.2865   8.3164   8.5505

          k =-0.0500 0.0736-0.0605 (  3794 PWs)   bands (ev):

    -9.1109  -9.0365  -6.7562  -6.5884  -3.2918  -3.2749  -0.1952  -0.0213
     1.0838   1.1779   1.4703   1.7122   2.3036   2.3622   3.7651   3.8758
     4.0131   4.5687   5.1766   5.8686   6.9755   7.3677   7.6488   7.7861

          k =-0.0500 0.0736-0.1814 (  3819 PWs)   bands (ev):

    -8.8354  -8.7676  -7.0588  -6.9818  -3.3772  -3.2448  -1.2249  -1.0070
     1.3159   1.8627   2.2791   2.3100   2.8103   2.9661   3.5908   3.6466
     4.0076   4.8508   5.0049   5.2663   7.6156   7.9725   8.0126   8.1559

          k =-0.0500 0.0736-0.3023 (  3832 PWs)   bands (ev):

    -8.3168  -8.2670  -7.6401  -7.6325  -3.0845  -2.8319  -2.3222  -2.0328
     1.9217   2.6566   2.7666   2.8453   2.8979   3.2203   3.2424   3.7438
     4.1283   4.2617   5.2349   5.2800   7.9443   7.9457   8.0468   8.1230

          k =-0.1499 0.0736-0.0605 (  3796 PWs)   bands (ev):

    -8.8746  -8.8010  -6.5114  -6.3451  -3.4070  -3.4013  -0.0646   0.0402
     0.8996   0.9956   1.1763   1.2321   1.7839   2.0379   2.9298   2.9399
     4.0534   4.6186   5.2079   5.7666   7.0464   7.4801   7.9873   8.1127

          k =-0.1499 0.0736-0.1814 (  3811 PWs)   bands (ev):

    -8.6016  -8.5346  -6.8267  -6.7523  -3.3829  -3.2576  -1.1428  -0.9471
     0.9876   1.1047   1.3744   1.8981   2.4783   2.5978   3.0439   3.2135
     4.1345   4.6953   4.8801   5.0326   7.7003   8.1986   8.4303   8.6727

          k =-0.1499 0.0736-0.3023 (  3808 PWs)   bands (ev):

    -8.0876  -8.0383  -7.4148  -7.4067  -3.0084  -2.7744  -2.2228  -1.9589
     1.3300   1.4276   1.8358   1.8364   2.1785   2.9787   2.9914   3.7770
     4.4130   4.4385   4.8829   5.0541   8.4550   8.4939   8.6861   8.7825

          k =-0.2498 0.0736-0.0605 (  3807 PWs)   bands (ev):

    -8.4070  -8.3352  -6.0270  -5.8651  -3.8419  -3.8207  -0.4634  -0.4166
     0.4328   0.4651   0.5818   0.8998   2.0038   2.3098   2.6095   2.7606
     3.9666   4.5088   5.1047   5.3770   6.9507   7.1407   7.6012   7.9557

          k =-0.2498 0.0736-0.1814 (  3819 PWs)   bands (ev):

    -8.1405  -8.0754  -6.3792  -6.3119  -3.5885  -3.4754  -1.2512  -1.1582
     0.0795   0.2217   0.8760   0.9947   2.1890   2.5047   3.1601   3.2805
     4.0141   4.3655   4.4634   4.9213   7.6681   7.9122   8.1380   8.2526

          k =-0.2498 0.0736-0.3023 (  3815 PWs)   bands (ev):

    -7.6392  -7.5912  -6.9800  -6.9706  -3.0361  -2.8564  -2.2164  -2.0384
     0.1749   0.3342   0.6014   0.7253   2.3484   2.9599   3.0806   3.5206
     4.0766   4.1952   4.5162   4.6696   7.9988   8.1946   8.7581   8.8577

          k =-0.3497 0.0736-0.0605 (  3818 PWs)   bands (ev):

    -7.7201  -7.6516  -5.3505  -5.2183  -4.6547  -4.5807  -1.7968  -1.6697
     0.3451   0.3831   0.8745   1.1183   2.4619   2.7056   2.7385   2.9510
     3.6570   4.1422   4.7110   4.7682   6.9969   7.0574   7.6698   7.7116

          k =-0.3497 0.0736-0.1814 (  3818 PWs)   bands (ev):

    -7.4693  -7.4076  -5.8101  -5.7629  -4.1560  -4.0401  -2.1129  -2.0733
    -0.1102   0.0424   0.8533   0.8640   2.2101   2.2616   3.0007   3.0262
     3.5279   4.1724   4.6411   4.8513   7.2208   7.4289   8.1814   8.2870

          k =-0.3497 0.0736-0.3023 (  3824 PWs)   bands (ev):

    -7.0018  -6.9572  -6.3942  -6.3837  -3.4967  -3.3901  -2.7528  -2.6981
    -0.1583   0.0685   0.2624   0.4944   2.0783   2.3640   2.5628   2.8164
     3.7539   4.2614   4.4556   4.8109   7.7860   8.3864   8.7219   8.8631

          k =-0.4496 0.0736-0.0605 (  3820 PWs)   bands (ev):

    -6.8395  -6.7765  -5.8261  -5.7738  -4.2831  -4.1187  -3.1298  -2.9775
     0.6922   0.7411   1.0183   1.1424   2.8332   2.8501   2.9007   2.9478
     3.7004   4.0058   4.1262   4.3448   6.9509   6.9525   7.1416   7.2402

          k =-0.4496 0.0736-0.1814 (  3817 PWs)   bands (ev):

    -6.6323  -6.5780  -5.8081  -5.7720  -4.2351  -4.1176  -3.2993  -3.2129
     0.3210   0.4790   0.9072   1.0406   1.8497   2.0155   2.3774   2.5188
     3.9079   4.4212   4.5463   4.7287   7.1059   7.4511   7.7911   8.0913

          k =-0.4496 0.0736-0.3023 (  3822 PWs)   bands (ev):

    -6.2803  -6.2466  -5.9330  -5.9317  -4.0312  -3.9724  -3.6341  -3.6295
     0.2941   0.5428   0.7409   0.9076   1.3033   1.4464   1.6525   1.9136
     4.1834   4.5716   4.6357   4.6749   7.9013   8.2865   8.3164   8.5504

 ------ SPIN DOWN ----------


          k = 0.0500 0.0736 0.0605 (  3794 PWs)   bands (ev):

    -9.1109  -9.0365  -6.7562  -6.5884  -3.2918  -3.2749  -0.1952  -0.0213
     1.0838   1.1779   1.4703   1.7122   2.3036   2.3622   3.7651   3.8758
     4.0131   4.5687   5.1766   5.8686   6.9755   7.3677   7.6488   7.7861

          k = 0.0500 0.0736 0.1814 (  3819 PWs)   bands (ev):

    -8.8354  -8.7676  -7.0588  -6.9818  -3.3772  -3.2448  -1.2249  -1.0070
     1.3159   1.8627   2.2791   2.3100   2.8103   2.9661   3.5908   3.6466
     4.0076   4.8508   5.0050   5.2663   7.6156   7.9725   8.0126   8.1549

          k = 0.0500 0.0736 0.3023 (  3832 PWs)   bands (ev):

    -8.3168  -8.2670  -7.6401  -7.6325  -3.0845  -2.8319  -2.3222  -2.0328
     1.9217   2.6566   2.7666   2.8453   2.8979   3.2203   3.2424   3.7438
     4.1283   4.2617   5.2349   5.2800   7.9443   7.9457   8.0468   8.1230

          k = 0.1499 0.0736 0.0605 (  3796 PWs)   bands (ev):

    -8.8746  -8.8010  -6.5114  -6.3451  -3.4070  -3.4013  -0.0646   0.0402
     0.8996   0.9956   1.1763   1.2321   1.7839   2.0379   2.9298   2.9399
     4.0534   4.6186   5.2079   5.7667   7.0464   7.4801   7.9873   8.1127

          k = 0.1499 0.0736 0.1814 (  3811 PWs)   bands (ev):

    -8.6016  -8.5346  -6.8267  -6.7523  -3.3829  -3.2576  -1.1428  -0.9471
     0.9876   1.1047   1.3744   1.8981   2.4783   2.5978   3.0439   3.2135
     4.1345   4.6953   4.8801   5.0326   7.7003   8.1986   8.4303   8.6727

          k = 0.1499 0.0736 0.3023 (  3808 PWs)   bands (ev):

    -8.0876  -8.0383  -7.4148  -7.4067  -3.0084  -2.7744  -2.2228  -1.9589
     1.3300   1.4276   1.8358   1.8364   2.1785   2.9787   2.9914   3.7770
     4.4130   4.4385   4.8829   5.0541   8.4550   8.4939   8.6861   8.7831

          k = 0.2498 0.0736 0.0605 (  3807 PWs)   bands (ev):

    -8.4070  -8.3352  -6.0270  -5.8651  -3.8419  -3.8207  -0.4634  -0.4166
     0.4328   0.4651   0.5818   0.8998   2.0038   2.3098   2.6095   2.7606
     3.9666   4.5088   5.1047   5.3770   6.9507   7.1407   7.6012   7.9557

          k = 0.2498 0.0736 0.1814 (  3819 PWs)   bands (ev):

    -8.1405  -8.0754  -6.3792  -6.3119  -3.5885  -3.4754  -1.2512  -1.1582
     0.0794   0.2217   0.8760   0.9947   2.1890   2.5047   3.1601   3.2805
     4.0141   4.3655   4.4634   4.9213   7.6681   7.9122   8.1380   8.2526

          k = 0.2498 0.0736 0.3023 (  3815 PWs)   bands (ev):

    -7.6392  -7.5912  -6.9800  -6.9706  -3.0361  -2.8564  -2.2164  -2.0384
     0.1749   0.3342   0.6014   0.7253   2.3484   2.9599   3.0806   3.5206
     4.0766   4.1952   4.5162   4.6696   7.9988   8.1946   8.7581   8.8577

          k = 0.3497 0.0736 0.0605 (  3818 PWs)   bands (ev):

    -7.7201  -7.6516  -5.3505  -5.2183  -4.6547  -4.5807  -1.7968  -1.6697
     0.3451   0.3831   0.8745   1.1183   2.4619   2.7056   2.7385   2.9510
     3.6570   4.1422   4.7110   4.7682   6.9969   7.0574   7.6698   7.7116

          k = 0.3497 0.0736 0.1814 (  3818 PWs)   bands (ev):

    -7.4693  -7.4076  -5.8101  -5.7629  -4.1560  -4.0401  -2.1129  -2.0733
    -0.1102   0.0424   0.8533   0.8640   2.2101   2.2616   3.0007   3.0262
     3.5279   4.1724   4.6411   4.8513   7.2208   7.4289   8.1813   8.2869

          k = 0.3497 0.0736 0.3023 (  3824 PWs)   bands (ev):

    -7.0018  -6.9572  -6.3942  -6.3837  -3.4967  -3.3901  -2.7528  -2.6981
    -0.1583   0.0685   0.2624   0.4944   2.0783   2.3640   2.5628   2.8164
     3.7539   4.2614   4.4556   4.8109   7.7860   8.3864   8.7219   8.8630

          k = 0.4496 0.0736 0.0605 (  3820 PWs)   bands (ev):

    -6.8395  -6.7765  -5.8261  -5.7738  -4.2831  -4.1187  -3.1298  -2.9775
     0.6922   0.7411   1.0183   1.1424   2.8333   2.8501   2.9007   2.9478
     3.7004   4.0058   4.1262   4.3448   6.9509   6.9524   7.1416   7.2402

          k = 0.4496 0.0736 0.1814 (  3817 PWs)   bands (ev):

    -6.6323  -6.5780  -5.8081  -5.7720  -4.2351  -4.1176  -3.2993  -3.2129
     0.3210   0.4790   0.9072   1.0406   1.8497   2.0155   2.3774   2.5188
     3.9079   4.4212   4.5463   4.7287   7.1059   7.4511   7.7911   8.0913

          k = 0.4496 0.0736 0.3023 (  3822 PWs)   bands (ev):

    -6.2803  -6.2466  -5.9330  -5.9317  -4.0312  -3.9724  -3.6341  -3.6295
     0.2941   0.5428   0.7409   0.9076   1.3033   1.4464   1.6525   1.9136
     4.1834   4.5716   4.6357   4.6749   7.9013   8.2865   8.3164   8.5505

          k =-0.0500 0.0736-0.0605 (  3794 PWs)   bands (ev):

    -9.1109  -9.0365  -6.7562  -6.5884  -3.2918  -3.2749  -0.1952  -0.0213
     1.0838   1.1779   1.4703   1.7122   2.3036   2.3622   3.7651   3.8758
     4.0131   4.5687   5.1766   5.8686   6.9755   7.3677   7.6488   7.7861

          k =-0.0500 0.0736-0.1814 (  3819 PWs)   bands (ev):

    -8.8354  -8.7676  -7.0588  -6.9818  -3.3772  -3.2448  -1.2249  -1.0070
     1.3159   1.8627   2.2791   2.3100   2.8103   2.9661   3.5908   3.6466
     4.0076   4.8508   5.0049   5.2663   7.6156   7.9725   8.0126   8.1549

          k =-0.0500 0.0736-0.3023 (  3832 PWs)   bands (ev):

    -8.3168  -8.2670  -7.6401  -7.6325  -3.0845  -2.8319  -2.3222  -2.0328
     1.9217   2.6566   2.7666   2.8453   2.8979   3.2203   3.2424   3.7438
     4.1283   4.2617   5.2349   5.2800   7.9443   7.9457   8.0468   8.1230

          k =-0.1499 0.0736-0.0605 (  3796 PWs)   bands (ev):

    -8.8746  -8.8010  -6.5114  -6.3451  -3.4070  -3.4013  -0.0646   0.0402
     0.8996   0.9956   1.1763   1.2321   1.7839   2.0379   2.9298   2.9399
     4.0534   4.6186   5.2079   5.7666   7.0464   7.4801   7.9873   8.1127

          k =-0.1499 0.0736-0.1814 (  3811 PWs)   bands (ev):

    -8.6016  -8.5346  -6.8267  -6.7523  -3.3829  -3.2576  -1.1428  -0.9471
     0.9876   1.1047   1.3744   1.8981   2.4783   2.5978   3.0439   3.2135
     4.1345   4.6953   4.8801   5.0326   7.7003   8.1986   8.4303   8.6727

          k =-0.1499 0.0736-0.3023 (  3808 PWs)   bands (ev):

    -8.0876  -8.0383  -7.4148  -7.4067  -3.0084  -2.7744  -2.2228  -1.9589
     1.3300   1.4276   1.8358   1.8364   2.1785   2.9787   2.9914   3.7770
     4.4130   4.4385   4.8829   5.0541   8.4550   8.4939   8.6861   8.7831

          k =-0.2498 0.0736-0.0605 (  3807 PWs)   bands (ev):

    -8.4070  -8.3352  -6.0270  -5.8651  -3.8419  -3.8207  -0.4634  -0.4166
     0.4328   0.4651   0.5818   0.8998   2.0038   2.3098   2.6095   2.7606
     3.9666   4.5088   5.1047   5.3770   6.9507   7.1407   7.6012   7.9557

          k =-0.2498 0.0736-0.1814 (  3819 PWs)   bands (ev):

    -8.1405  -8.0754  -6.3792  -6.3119  -3.5885  -3.4754  -1.2512  -1.1582
     0.0795   0.2217   0.8760   0.9947   2.1890   2.5047   3.1601   3.2805
     4.0141   4.3655   4.4634   4.9213   7.6681   7.9122   8.1380   8.2526

          k =-0.2498 0.0736-0.3023 (  3815 PWs)   bands (ev):

    -7.6392  -7.5912  -6.9800  -6.9706  -3.0361  -2.8564  -2.2164  -2.0384
     0.1749   0.3342   0.6014   0.7253   2.3484   2.9599   3.0806   3.5206
     4.0766   4.1952   4.5162   4.6696   7.9988   8.1946   8.7581   8.8577

          k =-0.3497 0.0736-0.0605 (  3818 PWs)   bands (ev):

    -7.7201  -7.6516  -5.3505  -5.2183  -4.6547  -4.5807  -1.7968  -1.6697
     0.3451   0.3831   0.8745   1.1183   2.4619   2.7056   2.7385   2.9510
[...]
     0.0794   0.2217   0.8760   0.9947   2.1890   2.5047   3.1601   3.2805
     4.0141   4.3654   4.4634   4.9213   7.6681   7.9122   8.1380   8.2526

          k = 0.2498 0.0736 0.3023 (  3829 PWs)   bands (ev):

    -7.6392  -7.5913  -6.9800  -6.9706  -3.0361  -2.8565  -2.2164  -2.0384
     0.1749   0.3342   0.6014   0.7253   2.3484   2.9598   3.0806   3.5206
     4.0766   4.1952   4.5162   4.6696   7.9987   8.1946   8.7581   8.8576

          k = 0.3497 0.0736 0.0605 (  3834 PWs)   bands (ev):

    -7.7202  -7.6516  -5.3505  -5.2183  -4.6547  -4.5807  -1.7968  -1.6697
     0.3451   0.3831   0.8745   1.1183   2.4618   2.7056   2.7385   2.9509
     3.6570   4.1422   4.7110   4.7682   6.9969   7.0574   7.6698   7.7116

          k = 0.3497 0.0736 0.1814 (  3831 PWs)   bands (ev):

    -7.4693  -7.4076  -5.8101  -5.7629  -4.1560  -4.0401  -2.1129  -2.0733
    -0.1102   0.0424   0.8533   0.8640   2.2101   2.2615   3.0007   3.0262
     3.5279   4.1724   4.6411   4.8513   7.2207   7.4289   8.1814   8.2871

          k = 0.3497 0.0736 0.3023 (  3838 PWs)   bands (ev):

    -7.0018  -6.9572  -6.3942  -6.3837  -3.4967  -3.3901  -2.7528  -2.6981
    -0.1583   0.0685   0.2624   0.4944   2.0783   2.3639   2.5627   2.8164
     3.7539   4.2614   4.4556   4.8109   7.7860   8.3864   8.7223   8.9182

          k = 0.4496 0.0736 0.0605 (  3831 PWs)   bands (ev):

    -6.8395  -6.7766  -5.8262  -5.7738  -4.2831  -4.1186  -3.1298  -2.9775
     0.6922   0.7411   1.0183   1.1424   2.8333   2.8500   2.9006   2.9478
     3.7004   4.0058   4.1262   4.3448   6.9508   6.9524   7.1416   7.2402

          k = 0.4496 0.0736 0.1814 (  3831 PWs)   bands (ev):

    -6.6324  -6.5781  -5.8081  -5.7721  -4.2350  -4.1176  -3.2993  -3.2128
     0.3210   0.4790   0.9072   1.0406   1.8497   2.0155   2.3774   2.5188
     3.9079   4.4211   4.5463   4.7287   7.1059   7.4511   7.7911   8.0913

          k = 0.4496 0.0736 0.3023 (  3832 PWs)   bands (ev):

    -6.2803  -6.2466  -5.9330  -5.9318  -4.0311  -3.9724  -3.6340  -3.6295
     0.2941   0.5428   0.7409   0.9076   1.3032   1.4464   1.6525   1.9136
     4.1834   4.5716   4.6357   4.6749   7.9013   8.2865   8.3164   8.5505

          k =-0.0500 0.0736-0.0605 (  3808 PWs)   bands (ev):

    -9.1109  -9.0365  -6.7562  -6.5884  -3.2919  -3.2750  -0.1953  -0.0213
     1.0838   1.1779   1.4703   1.7122   2.3036   2.3622   3.7651   3.8758
     4.0131   4.5686   5.1766   5.8685   6.9754   7.3677   7.6488   7.7862

          k =-0.0500 0.0736-0.1814 (  3829 PWs)   bands (ev):

    -8.8354  -8.7676  -7.0588  -6.9818  -3.3772  -3.2449  -1.2249  -1.0070
     1.3159   1.8627   2.2791   2.3100   2.8103   2.9661   3.5908   3.6466
     4.0076   4.8508   5.0049   5.2663   7.6156   7.9725   8.0127   8.1550

          k =-0.0500 0.0736-0.3023 (  3837 PWs)   bands (ev):

    -8.3168  -8.2670  -7.6401  -7.6325  -3.0845  -2.8319  -2.3223  -2.0328
     1.9216   2.6566   2.7666   2.8453   2.8979   3.2203   3.2424   3.7438
     4.1283   4.2617   5.2349   5.2799   7.9444   7.9457   8.0469   8.1231

          k =-0.1499 0.0736-0.0605 (  3806 PWs)   bands (ev):

    -8.8746  -8.8010  -6.5113  -6.3451  -3.4071  -3.4014  -0.0646   0.0402
     0.8995   0.9956   1.1763   1.2321   1.7839   2.0379   2.9298   2.9399
     4.0533   4.6186   5.2079   5.7666   7.0464   7.4801   7.9873   8.1126

          k =-0.1499 0.0736-0.1814 (  3826 PWs)   bands (ev):

    -8.6016  -8.5346  -6.8267  -6.7523  -3.3830  -3.2576  -1.1428  -0.9471
     0.9876   1.1047   1.3744   1.8981   2.4783   2.5978   3.0439   3.2134
     4.1345   4.6952   4.8801   5.0326   7.7003   8.1986   8.4303   8.6727

          k =-0.1499 0.0736-0.3023 (  3822 PWs)   bands (ev):

    -8.0876  -8.0383  -7.4148  -7.4067  -3.0084  -2.7744  -2.2228  -1.9589
     1.3300   1.4276   1.8358   1.8364   2.1785   2.9786   2.9914   3.7770
     4.4130   4.4385   4.8828   5.0541   8.4550   8.4938   8.6859   8.7730

          k =-0.2498 0.0736-0.0605 (  3816 PWs)   bands (ev):

    -8.4070  -8.3352  -6.0270  -5.8651  -3.8419  -3.8208  -0.4634  -0.4166
     0.4328   0.4651   0.5818   0.8998   2.0038   2.3097   2.6095   2.7606
     3.9666   4.5088   5.1047   5.3769   6.9506   7.1406   7.6011   7.9556

          k =-0.2498 0.0736-0.1814 (  3827 PWs)   bands (ev):

    -8.1405  -8.0754  -6.3792  -6.3119  -3.5885  -3.4754  -1.2512  -1.1582
     0.0794   0.2217   0.8760   0.9947   2.1890   2.5047   3.1601   3.2805
     4.0141   4.3654   4.4634   4.9213   7.6681   7.9122   8.1380   8.2536

          k =-0.2498 0.0736-0.3023 (  3829 PWs)   bands (ev):

    -7.6392  -7.5913  -6.9800  -6.9706  -3.0361  -2.8565  -2.2164  -2.0384
     0.1749   0.3342   0.6014   0.7253   2.3484   2.9598   3.0806   3.5206
     4.0766   4.1952   4.5162   4.6696   7.9987   8.1946   8.7581   8.8576

          k =-0.3497 0.0736-0.0605 (  3834 PWs)   bands (ev):

    -7.7202  -7.6516  -5.3505  -5.2183  -4.6547  -4.5807  -1.7968  -1.6697
     0.3451   0.3831   0.8745   1.1183   2.4619   2.7056   2.7384   2.9510
     3.6570   4.1422   4.7110   4.7682   6.9969   7.0574   7.6698   7.7116

          k =-0.3497 0.0736-0.1814 (  3831 PWs)   bands (ev):

    -7.4693  -7.4076  -5.8101  -5.7629  -4.1560  -4.0401  -2.1129  -2.0733
    -0.1102   0.0424   0.8533   0.8640   2.2100   2.2615   3.0007   3.0262
     3.5279   4.1724   4.6411   4.8512   7.2207   7.4289   8.1814   8.2872

          k =-0.3497 0.0736-0.3023 (  3838 PWs)   bands (ev):

    -7.0018  -6.9572  -6.3942  -6.3837  -3.4967  -3.3901  -2.7528  -2.6981
    -0.1583   0.0685   0.2624   0.4944   2.0783   2.3639   2.5627   2.8164
     3.7539   4.2614   4.4556   4.8109   7.7860   8.3864   8.7218   8.8629

          k =-0.4496 0.0736-0.0605 (  3831 PWs)   bands (ev):

    -6.8395  -6.7766  -5.8262  -5.7738  -4.2831  -4.1186  -3.1298  -2.9775
     0.6922   0.7411   1.0183   1.1424   2.8332   2.8501   2.9007   2.9478
     3.7004   4.0058   4.1262   4.3448   6.9508   6.9524   7.1416   7.2402

          k =-0.4496 0.0736-0.1814 (  3831 PWs)   bands (ev):

    -6.6324  -6.5781  -5.8081  -5.7721  -4.2351  -4.1176  -3.2993  -3.2128
     0.3210   0.4790   0.9072   1.0406   1.8497   2.0155   2.3774   2.5188
     3.9079   4.4212   4.5463   4.7287   7.1059   7.4511   7.7911   8.0913

          k =-0.4496 0.0736-0.3023 (  3832 PWs)   bands (ev):

    -6.2803  -6.2466  -5.9330  -5.9318  -4.0311  -3.9724  -3.6340  -3.6295
     0.2941   0.5428   0.7409   0.9076   1.3032   1.4464   1.6525   1.9136
     4.1834   4.5716   4.6357   4.6748   7.9013   8.2865   8.3164   8.5505

 ------ SPIN DOWN ----------


          k = 0.0500 0.0736 0.0605 (  3808 PWs)   bands (ev):

    -9.1109  -9.0365  -6.7562  -6.5884  -3.2919  -3.2750  -0.1953  -0.0213
     1.0838   1.1779   1.4703   1.7122   2.3036   2.3622   3.7651   3.8758
     4.0131   4.5687   5.1766   5.8685   6.9754   7.3677   7.6488   7.7862

          k = 0.0500 0.0736 0.1814 (  3829 PWs)   bands (ev):

    -8.8354  -8.7676  -7.0588  -6.9818  -3.3772  -3.2449  -1.2249  -1.0070
     1.3159   1.8627   2.2791   2.3100   2.8103   2.9661   3.5908   3.6466
     4.0076   4.8508   5.0049   5.2663   7.6156   7.9725   8.0127   8.1549

          k = 0.0500 0.0736 0.3023 (  3837 PWs)   bands (ev):

    -8.3168  -8.2670  -7.6401  -7.6325  -3.0845  -2.8319  -2.3223  -2.0328
     1.9216   2.6566   2.7666   2.8453   2.8979   3.2203   3.2424   3.7438
     4.1283   4.2617   5.2349   5.2800   7.9443   7.9457   8.0469   8.1231

          k = 0.1499 0.0736 0.0605 (  3806 PWs)   bands (ev):

    -8.8746  -8.8010  -6.5113  -6.3451  -3.4071  -3.4014  -0.0646   0.0402
     0.8995   0.9956   1.1763   1.2321   1.7839   2.0379   2.9298   2.9399
     4.0534   4.6186   5.2079   5.7666   7.0464   7.4801   7.9873   8.1126

          k = 0.1499 0.0736 0.1814 (  3826 PWs)   bands (ev):

    -8.6016  -8.5346  -6.8267  -6.7523  -3.3830  -3.2576  -1.1428  -0.9471
     0.9876   1.1047   1.3744   1.8981   2.4783   2.5978   3.0439   3.2134
     4.1345   4.6952   4.8801   5.0326   7.7003   8.1986   8.4303   8.6727

          k = 0.1499 0.0736 0.3023 (  3822 PWs)   bands (ev):

    -8.0876  -8.0383  -7.4148  -7.4067  -3.0084  -2.7744  -2.2228  -1.9590
     1.3300   1.4276   1.8358   1.8364   2.1785   2.9786   2.9914   3.7770
     4.4130   4.4385   4.8828   5.0541   8.4550   8.4938   8.6859   8.7730

          k = 0.2498 0.0736 0.0605 (  3816 PWs)   bands (ev):

    -8.4070  -8.3352  -6.0270  -5.8651  -3.8419  -3.8208  -0.4634  -0.4166
     0.4328   0.4651   0.5818   0.8998   2.0038   2.3097   2.6095   2.7606
     3.9666   4.5088   5.1047   5.3769   6.9506   7.1406   7.6011   7.9556

          k = 0.2498 0.0736 0.1814 (  3827 PWs)   bands (ev):

    -8.1405  -8.0754  -6.3792  -6.3119  -3.5885  -3.4754  -1.2512  -1.1582
     0.0794   0.2217   0.8760   0.9947   2.1890   2.5047   3.1601   3.2805
     4.0141   4.3654   4.4634   4.9213   7.6681   7.9122   8.1379   8.2536

          k = 0.2498 0.0736 0.3023 (  3829 PWs)   bands (ev):

    -7.6392  -7.5913  -6.9800  -6.9706  -3.0361  -2.8565  -2.2164  -2.0384
     0.1749   0.3342   0.6014   0.7253   2.3484   2.9598   3.0806   3.5206
     4.0766   4.1952   4.5162   4.6696   7.9987   8.1946   8.7581   8.8576

          k = 0.3497 0.0736 0.0605 (  3834 PWs)   bands (ev):

    -7.7202  -7.6516  -5.3505  -5.2183  -4.6547  -4.5807  -1.7968  -1.6697
     0.3451   0.3831   0.8745   1.1183   2.4619   2.7056   2.7384   2.9510
     3.6570   4.1422   4.7110   4.7682   6.9969   7.0574   7.6698   7.7116

          k = 0.3497 0.0736 0.1814 (  3831 PWs)   bands (ev):

    -7.4693  -7.4076  -5.8101  -5.7629  -4.1560  -4.0401  -2.1129  -2.0733
    -0.1102   0.0424   0.8533   0.8640   2.2101   2.2615   3.0007   3.0262
     3.5279   4.1724   4.6411   4.8513   7.2207   7.4289   8.1814   8.2871

          k = 0.3497 0.0736 0.3023 (  3838 PWs)   bands (ev):

    -7.0018  -6.9572  -6.3942  -6.3837  -3.4967  -3.3901  -2.7528  -2.6981
    -0.1583   0.0685   0.2624   0.4944   2.0783   2.3639   2.5627   2.8164
     3.7539   4.2614   4.4556   4.8109   7.7860   8.3864   8.7218   8.8629

          k = 0.4496 0.0736 0.0605 (  3831 PWs)   bands (ev):

    -6.8395  -6.7766  -5.8262  -5.7738  -4.2831  -4.1187  -3.1298  -2.9775
     0.6922   0.7411   1.0182   1.1424   2.8332   2.8501   2.9007   2.9478
     3.7004   4.0058   4.1262   4.3448   6.9508   6.9524   7.1416   7.2402

          k = 0.4496 0.0736 0.1814 (  3831 PWs)   bands (ev):

    -6.6324  -6.5781  -5.8081  -5.7721  -4.2351  -4.1176  -3.2993  -3.2128
     0.3210   0.4790   0.9072   1.0406   1.8497   2.0155   2.3774   2.5188
     3.9079   4.4211   4.5463   4.7287   7.1059   7.4511   7.7911   8.0913

          k = 0.4496 0.0736 0.3023 (  3832 PWs)   bands (ev):

    -6.2803  -6.2466  -5.9330  -5.9318  -4.0311  -3.9724  -3.6340  -3.6295
     0.2941   0.5428   0.7409   0.9076   1.3032   1.4464   1.6525   1.9136
     4.1834   4.5716   4.6357   4.6749   7.9013   8.2865   8.3164   8.5505

          k =-0.0500 0.0736-0.0605 (  3808 PWs)   bands (ev):

    -9.1109  -9.0365  -6.7562  -6.5884  -3.2919  -3.2750  -0.1953  -0.0213
     1.0838   1.1779   1.4703   1.7122   2.3036   2.3622   3.7651   3.8758
     4.0131   4.5687   5.1766   5.8685   6.9754   7.3677   7.6488   7.7861

          k =-0.0500 0.0736-0.1814 (  3829 PWs)   bands (ev):

    -8.8354  -8.7676  -7.0588  -6.9818  -3.3772  -3.2449  -1.2249  -1.0070
     1.3159   1.8627   2.2791   2.3100   2.8103   2.9661   3.5908   3.6466
     4.0076   4.8508   5.0049   5.2663   7.6156   7.9725   8.0127   8.1550

          k =-0.0500 0.0736-0.3023 (  3837 PWs)   bands (ev):

    -8.3168  -8.2670  -7.6401  -7.6325  -3.0845  -2.8319  -2.3223  -2.0328
     1.9216   2.6566   2.7666   2.8453   2.8979   3.2203   3.2424   3.7438
     4.1283   4.2617   5.2349   5.2800   7.9443   7.9457   8.0469   8.1231

          k =-0.1499 0.0736-0.0605 (  3806 PWs)   bands (ev):

    -8.8746  -8.8010  -6.5113  -6.3451  -3.4071  -3.4014  -0.0646   0.0402
     0.8995   0.9956   1.1762   1.2321   1.7839   2.0379   2.9298   2.9399
     4.0534   4.6186   5.2079   5.7666   7.0464   7.4801   7.9873   8.1126

          k =-0.1499 0.0736-0.1814 (  3826 PWs)   bands (ev):

    -8.6016  -8.5346  -6.8267  -6.7523  -3.3830  -3.2576  -1.1428  -0.9471
     0.9876   1.1047   1.3744   1.8981   2.4783   2.5978   3.0439   3.2134
     4.1345   4.6952   4.8801   5.0326   7.7003   8.1986   8.4303   8.6727

          k =-0.1499 0.0736-0.3023 (  3822 PWs)   bands (ev):

    -8.0876  -8.0383  -7.4148  -7.4067  -3.0084  -2.7744  -2.2228  -1.9590
     1.3300   1.4276   1.8358   1.8364   2.1785   2.9786   2.9914   3.7770
     4.4130   4.4385   4.8828   5.0541   8.4550   8.4938   8.6859   8.7730

          k =-0.2498 0.0736-0.0605 (  3816 PWs)   bands (ev):

    -8.4070  -8.3352  -6.0270  -5.8651  -3.8419  -3.8208  -0.4634  -0.4166
     0.4328   0.4651   0.5818   0.8998   2.0038   2.3098   2.6095   2.7606
     3.9666   4.5088   5.1047   5.3769   6.9506   7.1406   7.6011   7.9556

          k =-0.2498 0.0736-0.1814 (  3827 PWs)   bands (ev):

    -8.1405  -8.0754  -6.3792  -6.3119  -3.5885  -3.4754  -1.2512  -1.1582
     0.0794   0.2217   0.8760   0.9947   2.1890   2.5047   3.1601   3.2805
     4.0141   4.3654   4.4634   4.9213   7.6681   7.9122   8.1380   8.2536

          k =-0.2498 0.0736-0.3023 (  3829 PWs)   bands (ev):

    -7.6392  -7.5913  -6.9800  -6.9706  -3.0361  -2.8565  -2.2164  -2.0384
     0.1749   0.3342   0.6014   0.7253   2.3484   2.9598   3.0806   3.5206
     4.0766   4.1952   4.5162   4.6696   7.9987   8.1946   8.7581   8.8576

          k =-0.3497 0.0736-0.0605 (  3834 PWs)   bands (ev):

    -7.7202  -7.6516  -5.3505  -5.2183  -4.6547  -4.5807  -1.7968  -1.6697
     0.3451   0.3830   0.8745   1.1183   2.4619   2.7056   2.7384   2.9510
     3.6570   4.1422   4.7110   4.7682   6.9969   7.0574   7.6698   7.7116

          k =-0.3497 0.0736-0.1814 (  3831 PWs)   bands (ev):

    -7.4693  -7.4076  -5.8101  -5.7629  -4.1560  -4.0401  -2.1129  -2.0733
    -0.1102   0.0424   0.8533   0.8640   2.2101   2.2615   3.0007   3.0262
     3.5279   4.1724   4.6411   4.8513   7.2207   7.4289   8.1814   8.2871

          k =-0.3497 0.0736-0.3023 (  3838 PWs)   bands (ev):

    -7.0018  -6.9572  -6.3942  -6.3837  -3.4967  -3.3901  -2.7528  -2.6981
    -0.1583   0.0685   0.2624   0.4944   2.0783   2.3639   2.5627   2.8164
     3.7539   4.2614   4.4556   4.8109   7.7860   8.3864   8.7218   8.8629

          k =-0.4496 0.0736-0.0605 (  3831 PWs)   bands (ev):

    -6.8395  -6.7766  -5.8262  -5.7738  -4.2831  -4.1187  -3.1298  -2.9775
     0.6922   0.7411   1.0183   1.1424   2.8332   2.8501   2.9007   2.9478
     3.7004   4.0058   4.1262   4.3448   6.9508   6.9524   7.1416   7.2402

          k =-0.4496 0.0736-0.1814 (  3831 PWs)   bands (ev):

    -6.6324  -6.5781  -5.8081  -5.7721  -4.2351  -4.1176  -3.2993  -3.2128
     0.3210   0.4790   0.9072   1.0405   1.8497   2.0155   2.3774   2.5188
     3.9079   4.4212   4.5463   4.7287   7.1059   7.4511   7.7911   8.0913

          k =-0.4496 0.0736-0.3023 (  3832 PWs)   bands (ev):

    -6.2803  -6.2466  -5.9330  -5.9318  -4.0311  -3.9724  -3.6340  -3.6295
     0.2941   0.5428   0.7409   0.9076   1.3032   1.4464   1.6525   1.9136
     4.1834   4.5716   4.6357   4.6749   7.9013   8.2865   8.3164   8.5505

     the Fermi energy is     6.7736 ev

!    total energy              =    -444.27863815 Ry
     Harris-Foulkes estimate   =    -444.27863815 Ry
     estimated scf accuracy    <          4.5E-09 Ry

     total all-electron energy =     -5473.586153 Ry

     The total energy is the sum of the following terms:

     one-electron contribution =       7.91557741 Ry
     hartree contribution      =      15.66867197 Ry
     xc contribution           =     -34.72775482 Ry
     ewald contribution        =     -97.07206284 Ry
     one-center paw contrib.   =    -336.06409147 Ry
     smearing contrib. (-TS)   =       0.00102160 Ry

     total magnetization       =     0.00 Bohr mag/cell
     absolute magnetization    =     0.00 Bohr mag/cell

     convergence has been achieved in   8 iterations

     Forces acting on atoms (cartesian axes, Ry/au):

     atom    1 type  1   force =     0.00000000    0.00008826   -0.00006105
     atom    2 type  1   force =     0.00000000   -0.00008540    0.00005613
     atom    3 type  1   force =     0.00000000   -0.00008615   -0.00005665
     atom    4 type  1   force =     0.00000000    0.00008812    0.00006172
     atom    5 type  1   force =    -0.00000000    0.00008540   -0.00005613
     atom    6 type  1   force =     0.00000000   -0.00008826    0.00006105
     atom    7 type  1   force =    -0.00000000   -0.00008812   -0.00006172
     atom    8 type  1   force =     0.00000000    0.00008615    0.00005665

     Total force =     0.000297     Total SCF correction =     0.000105
     SCF correction compared to forces is large: reduce conv_thr to get better values


     Computing stress (Cartesian axis) and pressure

          total   stress  (Ry/bohr**3)                   (kbar)     P=    0.07
   0.00000070   0.00000000   0.00000000          0.10      0.00      0.00
   0.00000000   0.00000224   0.00000000          0.00      0.33      0.00
   0.00000000   0.00000000  -0.00000145          0.00      0.00     -0.21


     Writing output data file pw.save/

     init_run     :     22.17s CPU     19.87s WALL (       2 calls)
     electrons    :   1167.16s CPU    977.46s WALL (       5 calls)
     update_pot   :      9.89s CPU     10.19s WALL (       2 calls)
     forces       :     18.83s CPU     15.35s WALL (       5 calls)
     stress       :     68.94s CPU     60.77s WALL (       5 calls)

     Called by init_run:
     wfcinit      :     13.02s CPU     10.12s WALL (       2 calls)
     potinit      :      9.81s CPU     10.52s WALL (       3 calls)
     hinit0       :      2.50s CPU      2.44s WALL (       2 calls)

     Called by electrons:
     c_bands      :    886.22s CPU    714.20s WALL (      48 calls)
     sum_band     :    126.34s CPU    104.34s WALL (      48 calls)
     v_of_rho     :      8.91s CPU      8.41s WALL (      53 calls)
     newd         :      7.64s CPU     12.26s WALL (      53 calls)
     PAW_pot      :    157.67s CPU    159.75s WALL (      55 calls)
     mix_rho      :      0.94s CPU      0.86s WALL (      48 calls)

     Called by c_bands:
     init_us_2    :     18.67s CPU     15.84s WALL (    6600 calls)
     cegterg      :    798.91s CPU    640.70s WALL (    2880 calls)

     Called by sum_band:
     sum_band:bec :      0.48s CPU      0.30s WALL (    3000 calls)
     addusdens    :     21.58s CPU     20.44s WALL (      48 calls)

     Called by *egterg:
     h_psi        :    571.45s CPU    452.86s WALL (   13247 calls)
     s_psi        :     61.22s CPU     35.28s WALL (   13247 calls)
     g_psi        :      2.78s CPU      2.66s WALL (   10247 calls)
     cdiaghg      :     68.33s CPU     88.89s WALL (   12947 calls)

     Called by h_psi:
     h_psi:pot    :    569.52s CPU    451.10s WALL (   13247 calls)
     h_psi:calbec :     64.41s CPU     39.06s WALL (   13247 calls)
     vloc_psi     :    441.84s CPU    373.06s WALL (   13247 calls)
     add_vuspsi   :     63.00s CPU     38.59s WALL (   13247 calls)

     General routines
     calbec       :     92.77s CPU     55.48s WALL (   17747 calls)
     fft          :      3.09s CPU      3.03s WALL (    1515 calls)
     ffts         :      0.34s CPU      0.22s WALL (     202 calls)
     fftw         :    460.50s CPU    389.24s WALL (  487336 calls)
     interpolate  :      0.30s CPU      0.29s WALL (     106 calls)

     Parallel routines
     fft_scatt_xy :     58.36s CPU     50.74s WALL (  489053 calls)
     fft_scatt_yz :     80.33s CPU     68.59s WALL (  489053 calls)

     PWSCF        :  21m39.12s CPU  18m16.57s WALL


   This run was terminated on:  14:42:56   7Nov2020            

=------------------------------------------------------------------------------=
   JOB DONE.
=------------------------------------------------------------------------------=
