#Generated by cif2cell 1.2.45.  :  Failed to get author information, No journal information.

2 atoms
1 atom types

0.0 3.548924 xlo xhi
0.0 3.073459 ylo yhi
0.0 5.738414 zlo zhi
-1.774462145 3.51376516864e-16 6.08601979795e-16 xy xz yz

Masses

1 204.3835 # Tl

Atoms

1 1   1.774462145000000   1.024486197082551   1.434603500000000 
2 1   0.000000000000001   2.048972394165102   4.303810500000000 
