#Generated by cif2cell 1.2.45.  :  Failed to get author information, No journal information.

2 atoms
1 atom types

0.0 2.758516 xlo xhi
0.0 2.388945 ylo yhi
0.0 4.356799 zlo zhi
-1.3792578 2.66776997494e-16 4.6207131395e-16 xy xz yz

Masses

1 190.23 # Os

Atoms

1 1   1.379257800000000   0.796314862111891   1.089199750000000 
2 1   0.000000000000001   1.592629724223783   3.267599250000000 
