#Generated by cif2cell 1.2.45.  :  Failed to get author information, No journal information.

4 atoms
1 atom types

0.0 5.507370 xlo xhi
0.0 5.507370 ylo yhi
0.0 5.507370 zlo zhi
3.37229152111e-16 3.37229152111e-16 3.37229152111e-16 xy xz yz

Masses

1 40.078 # Ca

Atoms

1 1   0.000000000000000   0.000000000000000   0.000000000000000 
2 1   0.000000000000000   2.753685000000000   2.753685000000000 
3 1   2.753685000000000   0.000000000000000   2.753685000000000 
4 1   2.753685000000000   2.753685000000000   0.000000000000000 
