#Generated by cif2cell 1.2.45.  :  Failed to get author information, No journal information.

4 atoms
1 atom types

0.0 6.223500 xlo xhi
0.0 4.456100 ylo yhi
0.0 8.178500 zlo zhi

Atoms

1 1   0.000000000000000   0.000000000000000   0.000000000000000 
2 1   3.111750000000000   0.000000000000000   4.089250000000000 
3 1   3.111750000000000   2.228050000000000   0.000000000000000 
4 1   0.000000000000000   2.228050000000000   4.089250000000000 
