#Generated by cif2cell 1.2.45.  :  Failed to get author information, No journal information.

1 atoms
1 atom types

0.0 5.060000 xlo xhi
0.0 4.294013 ylo yhi
0.0 4.028824 zlo zhi
2.67676145465 2.67676145465 1.4856408199 xy xz yz

Atoms

1 1   0.000000000000000   0.000000000000000   0.000000000000000 
