#Generated by cif2cell 1.2.45.  :  Failed to get author information, No journal information.

8 atoms
1 atom types

0.0 4.258648 xlo xhi
0.0 8.452190 ylo yhi
0.0 8.743796 zlo zhi
5.17547371464e-16 5.3540308919e-16 5.3540308919e-16 xy xz yz

Atoms

1 1   1.522581643496000   0.000000000000000   1.029590722796000 
2 1   2.736066356504000   0.000000000000000   7.714205277203999 
3 1   0.606742356504000   0.000000000000000   5.401488722796000 
4 1   3.651905643496000   0.000000000000000   3.342307277204000 
5 1   3.651905643496001   4.226095000000000   1.029590722796000 
6 1   0.606742356504001   4.226095000000001   7.714205277203999 
7 1   2.736066356504001   4.226095000000000   5.401488722796000 
8 1   1.522581643496000   4.226095000000000   3.342307277204000 
