#Generated by cif2cell 1.2.45.  :  Failed to get author information, No journal information.

2 atoms
1 atom types

0.0 3.198486 xlo xhi
0.0 2.769970 ylo yhi
0.0 5.075185 zlo zhi
-1.59924297 3.10765453267e-16 5.38261554295e-16 xy xz yz

Atoms

1 1   1.599242970000000   0.923323359229117   1.268796250000000 
2 1   0.000000000000001   1.846646718458234   3.806388750000000 
