#Generated by cif2cell 1.2.45.  :  Failed to get author information, No journal information.

36 atoms
1 atom types

0.0 4.900260 xlo xhi
0.0 4.243749 ylo yhi
0.0 12.558520 zlo zhi
-2.45013148135 7.68987566001e-16 1.33192607156e-15 xy xz yz

Masses

1 10.8135 # B

Atoms

1 1   1.576521129997533   0.910207727953565   2.824285562800000 
2 1   2.450131604225522   2.423337577733423   2.824285562800000 
3 1   3.323738234557533   0.910207727953565   2.824285562800000 
4 1  -0.873604815645463   3.333541061938198   9.734221878680000 
5 1   0.873607388654537   3.333541061938198   9.734221878680000 
6 1   0.000001814686548   1.820411212158341   9.734221878680000 
7 1   4.026864433011795   0.504254962461309   1.362172430320000 
8 1   0.873400115211795   0.504254962461309   1.362172430320000 
9 1   2.450131320819961   3.235234621220354   1.362172430320000 
10 1   1.576733303700275   3.739493827430454  11.196347569680000 
11 1  -0.000000352036410   1.008509924922619  11.196347569680000 
12 1  -1.576731014099725   3.739493827430454  11.196347569680000 
13 1   1.002702262207623   3.408074021935066   0.303928742520000 
14 1   0.000001866720375   1.671345292164602   0.303928742520000 
15 1  -1.002699741232377   3.408074021935066   0.303928742520000 
16 1   3.452828259884448   0.835674767956697  12.254591257480000 
17 1   1.447431156704448   0.835674767956697  12.254591257480000 
18 1   2.450134002323177   2.572399253978372  12.254591257480000 
19 1   1.003006482543033   2.250082289637301   3.882252963160000 
20 1  -1.003003153136967   2.250082289637301   3.882252963160000 
21 1   0.000003508418075   3.987333000508922   3.882252963160000 
22 1   3.453136572049039   1.993666500254462   8.676267036840001 
23 1   2.450132360625477   0.256411545634051   8.676267036840001 
24 1   1.447126936369038   1.993666500254462   8.676267036840001 
25 1  -0.873616714171653   2.324780755836977   7.010605412200000 
26 1   0.000001110438929   3.837931824360783   7.010605412200000 
27 1   0.873619991428347   2.324780755836977   7.010605412200000 
28 1   1.576515877615206   1.918963790305997   5.547914587800000 
29 1   3.323747682955205   1.918963790305997   5.547914587800000 
30 1   2.450132308473142   0.405816965530980   5.547914587800000 
31 1   1.002980114407112   0.579068009878311   4.489482522199999 
32 1   2.450131373049327   3.085608526386351   4.489482522199999 
33 1   3.897284381587113   0.579068009878311   4.489482522199999 
34 1  -1.447150962675043   3.664680780013452   8.069037477799998 
35 1   1.447153304504958   3.664680780013452   8.069037477799998 
36 1  -0.000002854397257   1.158140263505412   8.069037477799998 
