#Generated by cif2cell 1.2.45.  :  Failed to get author information, No journal information.

4 atoms
1 atom types

0.0 3.875728 xlo xhi
0.0 3.875728 ylo yhi
0.0 3.875728 zlo zhi
2.37319894478e-16 2.37319894478e-16 2.37319894478e-16 xy xz yz

Masses

1 192.217 # Ir

Atoms

1 1   0.000000000000000   0.000000000000000   0.000000000000000 
2 1   0.000000000000000   1.937864000000000   1.937864000000000 
3 1   1.937864000000000   0.000000000000000   1.937864000000000 
4 1   1.937864000000000   1.937864000000000   0.000000000000000 
