#Generated by cif2cell 1.2.45.  :  Failed to get author information, No journal information.

2 atoms
1 atom types

0.0 2.655960 xlo xhi
0.0 2.300128 ylo yhi
0.0 4.862150 zlo zhi
-1.3279808029 2.97720821724e-16 5.15667797545e-16 xy xz yz

Masses

1 65.38 # Zn

Atoms

1 1   1.327979732367885   0.766709455960903   3.646612500000000 
2 1  -0.000000535264231   1.533418911921806   1.215537500000000 
