#Generated by cif2cell 1.2.45.  :  Failed to get author information, No journal information.

2 atoms
1 atom types

0.0 3.185930 xlo xhi
0.0 2.759097 ylo yhi
0.0 5.035590 zlo zhi
-1.59296403689 3.08340958766e-16 5.34061991375e-16 xy xz yz

Masses

1 178.49 # Hf

Atoms

1 1   1.592965321035466   0.919698956909490   1.258897500000000 
2 1   0.000000642070933   1.839397913818981   3.776692500000000 
