#Generated by cif2cell 1.2.44.  :  Failed to get author information, No journal information.

2 atoms
1 atom types

0.0 3.900400 xlo xhi
0.0 3.377845 ylo yhi
0.0 6.355690 zlo zhi
-1.9502 3.89173770744e-16 6.74068743901e-16 xy xz yz

Atoms

1 1   1.950200000000000   1.125948494973608   4.766767500000000 
2 1   0.000000000000001   2.251896989947216   1.588922500000000 
