#Generated by cif2cell 1.2.45.  :  Failed to get author information, No journal information.

2 atoms
1 atom types

0.0 3.658000 xlo xhi
0.0 3.167921 ylo yhi
0.0 11.799000 zlo zhi
-1.829 7.22480379157e-16 1.25137272417e-15 xy xz yz

Atoms

1 1   1.829000000000000   1.055973642347826   8.849250000000000 
2 1   0.000000000000001   2.111947284695651   2.949750000000000 
