#Generated by cif2cell 1.2.45.  :  Failed to get author information, No journal information.

2 atoms
1 atom types

0.0 3.861000 xlo xhi
0.0 3.343724 ylo yhi
0.0 6.265000 zlo zhi
-1.9305 3.83620609833e-16 6.64450387061e-16 xy xz yz

Atoms

1 1   1.930500000000000   1.114574694670573   4.698750000000000 
2 1   0.000000000000001   2.229149389341145   1.566250000000000 
