#Generated by cif2cell 1.2.45.  :  Failed to get author information, No journal information.

2 atoms
1 atom types

0.0 3.007846 xlo xhi
0.0 2.604871 ylo yhi
0.0 5.941963 zlo zhi
-1.50392299 3.6384029843e-16 6.30189882722e-16 xy xz yz

Atoms

1 1   1.503922990000000   0.868290343116967   4.456472250000000 
2 1   0.000000000000001   1.736580686233934   1.485490750000000 
