#Generated by cif2cell 1.2.45.  :  Failed to get author information, No journal information.

4 atoms
1 atom types

0.0 6.022530 xlo xhi
0.0 6.022530 ylo yhi
0.0 6.022530 zlo zhi
3.68773604363e-16 3.68773604363e-16 3.68773604363e-16 xy xz yz

Masses

1 87.62 # Sr

Atoms

1 1   0.000000000000000   0.000000000000000   0.000000000000000 
2 1   0.000000000000000   3.011265000000000   3.011265000000000 
3 1   3.011265000000000   0.000000000000000   3.011265000000000 
4 1   3.011265000000000   3.011265000000000   0.000000000000000 
