#Generated by cif2cell 1.2.45.  :  Failed to get author information, No journal information.

8 atoms
1 atom types

0.0 5.763470 xlo xhi
0.0 5.763470 ylo yhi
0.0 5.763470 zlo zhi
3.52910754374e-16 3.52910754374e-16 3.52910754374e-16 xy xz yz

Masses

1 72.63 # Ge

Atoms

1 1   2.881735000000000   0.000000000000000   2.881735000000000 
2 1   2.881735000000000   2.881735000000000   0.000000000000000 
3 1   0.000000000000000   2.881735000000000   2.881735000000000 
4 1   1.440867500000000   1.440867500000000   1.440867500000000 
5 1   1.440867500000000   4.322567919180000   4.322567919180000 
6 1   4.322567919180000   1.440867500000000   4.322567919180000 
7 1   4.322567919180000   4.322567919180000   1.440867500000000 
8 1   0.000000000000000   0.000000000000000   0.000000000000000 
