#Generated by cif2cell 1.2.45.  :  Failed to get author information, No journal information.

8 atoms
1 atom types

0.0 4.530572 xlo xhi
0.0 7.751060 ylo yhi
0.0 4.592971 zlo zhi
4.7461554095e-16 2.81238361686e-16 2.81238361686e-16 xy xz yz

Masses

1 69.723 # Ga

Atoms

1 1   2.265286000000000   1.207754667080000   2.668686090927000 
2 1   2.265286000000001   6.543305332920000   1.924284909073000 
3 1   2.265286000000000   2.667775332920000   0.372200590927000 
4 1   2.265286000000001   5.083284667080000   4.220770409073000 
5 1   0.000000000000000   5.083284667080000   2.668686090927000 
6 1   0.000000000000000   2.667775332920000   1.924284909073000 
7 1   0.000000000000000   6.543305332920000   0.372200590927000 
8 1   0.000000000000000   1.207754667080000   4.220770409073000 
