#Generated by cif2cell 1.2.45.  :  Failed to get author information, No journal information.

2 atoms
1 atom types

0.0 3.621970 xlo xhi
0.0 3.136718 ylo yhi
0.0 5.677550 zlo zhi
-1.81098554746 3.47649671725e-16 6.02147016015e-16 xy xz yz

Masses

1 158.925 # Tb

Atoms

1 1  -0.000000364973697   2.091145143779044   1.419387500000000 
2 1   1.810984817513152   1.045572571889522   4.258162500000000 
