#Generated by cif2cell 1.2.45.  :  Failed to get author information, No journal information.

2 atoms
1 atom types

0.0 3.318656 xlo xhi
0.0 2.874040 ylo yhi
0.0 5.178040 zlo zhi
-1.659327915 3.17063505593e-16 5.49170100913e-16 xy xz yz

Masses

1 44.955 # Sc

Atoms

1 1   1.659327915000000   0.958013418399111   1.294510000000000 
2 1   0.000000000000001   1.916026836798221   3.883530000000000 
