#Generated by cif2cell 1.2.45.  :  Failed to get author information, No journal information.

2 atoms
1 atom types

0.0 2.719730 xlo xhi
0.0 2.355355 ylo yhi
0.0 4.283760 zlo zhi
-1.35986582217 2.62304648616e-16 4.54325161587e-16 xy xz yz

Masses

1 101.07 # Ru

Atoms

1 1   1.359864725941997   0.785118265584025   1.070940000000000 
2 1  -0.000000548116006   1.570236531168050   3.212820000000000 
