#Generated by cif2cell 1.2.45.  :  Failed to get author information, No journal information.

8 atoms
1 atom types

0.0 5.855921 xlo xhi
0.0 5.855921 ylo yhi
0.0 5.855921 zlo zhi
3.58571745435e-16 3.58571745435e-16 3.58571745435e-16 xy xz yz

Masses

1 14.0065 # N

Atoms

1 1   0.321308529349000   0.321308529349000   0.321308529349000 
2 1   2.606651970651001   5.534612470651001   3.249269029349000 
3 1   3.249269029349001   2.606651970651001   5.534612470651001 
4 1   5.534612470651001   3.249269029349000   2.606651970651000 
5 1   5.534612470651001   5.534612470651001   5.534612470651001 
6 1   3.249269029349000   0.321308529349000   2.606651970651000 
7 1   2.606651970651000   3.249269029349000   0.321308529349000 
8 1   0.321308529349000   2.606651970651000   3.249269029349000 
