#Generated by cif2cell 1.2.45.  :  Failed to get author information, No journal information.

2 atoms
1 atom types

0.0 2.781050 xlo xhi
0.0 2.408460 ylo yhi
0.0 4.497136 zlo zhi
-1.39052501 2.75370160387e-16 4.76955108678e-16 xy xz yz

Atoms

1 1   1.390525010000000   0.802819988838407   3.372852000000000 
2 1   0.000000000000001   1.605639977676814   1.124284000000000 
