#Generated by cif2cell 1.2.45.  :  Failed to get author information, No journal information.

4 atoms
1 atom types

0.0 7.180200 xlo xhi
0.0 4.710200 ylo yhi
0.0 9.810300 zlo zhi

Atoms

1 1   0.000000000000000   0.000000000000000   0.000000000000000 
2 1   3.590100000000000   0.000000000000000   4.905150000000000 
3 1   3.590100000000000   2.355100000000000   0.000000000000000 
4 1   0.000000000000000   2.355100000000000   4.905150000000000 
