#Generated by cif2cell 1.2.45.  :  Failed to get author information, No journal information.

2 atoms
1 atom types

0.0 3.008220 xlo xhi
0.0 2.605195 ylo yhi
0.0 5.942160 zlo zhi
-1.50411 3.63852361201e-16 6.30210776054e-16 xy xz yz

Masses

1 112.411 # Cd

Atoms

1 1   1.504110000000001   0.868398313390809   4.456620000000000 
2 1   0.000000000000001   1.736796626781616   1.485540000000000 
