#Generated by cif2cell 1.2.45.  :  Failed to get author information, No journal information.

2 atoms
1 atom types

0.0 3.658988 xlo xhi
0.0 3.168776 ylo yhi
0.0 5.665965 zlo zhi
-1.82949388 3.46940295067e-16 6.00918218248e-16 xy xz yz

Masses

1 88.905 # Y

Atoms

1 1   1.829493880000000   1.056258784098773   4.249473750000000 
2 1   0.000000000000001   2.112517568197546   1.416491250000000 
