#Generated by cif2cell 1.2.45.  :  Failed to get author information, No journal information.

2 atoms
1 atom types

0.0 2.750360 xlo xhi
0.0 2.381881 ylo yhi
0.0 4.408030 zlo zhi
-1.37518041572 2.69913991502e-16 4.67504841173e-16 xy xz yz

Masses

1 98 # Tc

Atoms

1 1   1.375179861427751   0.793960463179448   3.306022500000000 
2 1  -0.000000277144498   1.587920926358896   1.102007500000000 
