#Generated by cif2cell 1.2.45.  :  Failed to get author information, No journal information.

2 atoms
1 atom types

0.0 3.574710 xlo xhi
0.0 3.095790 ylo yhi
0.0 5.587270 zlo zhi
-1.78735445968 3.42121616074e-16 5.92571901984e-16 xy xz yz

Masses

1 204.3835 # Tl

Atoms

1 1   1.787355180105751   1.031929994371507   1.396817500000000 
2 1   0.000000360211503   2.063859988743014   4.190452500000000 
