#Generated by cif2cell 1.2.45.  :  Failed to get author information, No journal information.

8 atoms
1 atom types

0.0 3.309290 xlo xhi
0.0 11.233430 ylo yhi
0.0 4.556670 zlo zhi
6.87849204647e-16 2.79015566514e-16 -6.36231155373e-06 xy xz yz

Masses

1 30.973 # P

Atoms

1 1   0.000000000000001   6.679650033270558   4.163698222525942 
2 1   1.654645000000001  10.170488604424250   0.392967220799617 
3 1   0.000000000000001  10.170486520639971   1.885367779198162 
4 1   1.654645000000001   6.679640883618474   2.671302220797396 
5 1   1.654645000000000   1.062935033264194   4.163702779195941 
6 1   0.000000000000000   4.553773604417890   0.392971777469617 
7 1   1.654645000000000   4.553782754069972   1.885367779198162 
8 1   0.000000000000000   1.062937117048475   2.671302220797396 
