#Generated by cif2cell 1.2.45.  :  Failed to get author information, No journal information.

2 atoms
1 atom types

0.0 3.558800 xlo xhi
0.0 3.082011 ylo yhi
0.0 5.587400 zlo zhi
-1.7794 3.42129576278e-16 5.92585808885e-16 xy xz yz

Atoms

1 1   1.779400000000000   1.027337068996021   4.190550000000000 
2 1   0.000000000000001   2.054674137992040   1.396850000000000 
