#Generated by cif2cell 1.2.45.  :  Failed to get author information, No journal information.

2 atoms
1 atom types

0.0 3.672500 xlo xhi
0.0 3.180478 ylo yhi
0.0 11.835400 zlo zhi
-1.83625 7.24709236331e-16 1.25523321804e-15 xy xz yz

Atoms

1 1   1.836250000000001   1.060159431799451   8.876550000000000 
2 1   0.000000000000001   2.120318863598901   2.958850000000000 
