#Generated by cif2cell 1.2.45.  :  Failed to get author information, No journal information.

2 atoms
1 atom types

0.0 4.139390 xlo xhi
0.0 4.139390 ylo yhi
0.0 3.604516 zlo zhi
2.53464535696e-16 2.20712949094e-16 2.20712949094e-16 xy xz yz

Atoms

1 1   0.000000000000000   0.000000000000000   0.000000000000000 
2 1   2.069695000000000   2.069695000000000   1.802258000000000 
