#Generated by cif2cell 1.2.45.  :  Failed to get author information, No journal information.

2 atoms
1 atom types

0.0 4.581000 xlo xhi
0.0 4.581000 ylo yhi
0.0 4.581000 zlo zhi
2.80505349345e-16 2.80505349345e-16 2.80505349345e-16 xy xz yz

Atoms

1 1   0.000000000000000   0.000000000000000   0.000000000000000 
2 1   2.290500000000000   2.290500000000000   2.290500000000000 
