#Generated by cif2cell 1.2.45.  :  Failed to get author information, No journal information.

2 atoms
1 atom types

0.0 2.732930 xlo xhi
0.0 2.366787 ylo yhi
0.0 4.313923 zlo zhi
-1.36646504 2.64151599686e-16 4.57523991557e-16 xy xz yz

Masses

1 101.07 # Ru

Atoms

1 1   1.366465040000000   0.788928958682213   1.078480750000000 
2 1   0.000000000000001   1.577857917364426   3.235442250000000 
