#Generated by cif2cell 1.2.45.  :  Failed to get author information, No journal information.

6 atoms
1 atom types

0.0 4.385954 xlo xhi
0.0 3.798347 ylo yhi
0.0 11.573084 zlo zhi
-2.192976905 7.08647032825e-16 1.22741266549e-15 xy xz yz

Atoms

1 1   2.192976905000000   1.266115806428382   0.754140712010352 
2 1   0.000000000000000   0.000000000000000   3.103554019412700 
3 1   0.000000000000001   2.532231612856765   4.611835559164247 
4 1   2.192976905000001   1.266115806428383   6.961248750835753 
5 1   0.000000000000001   0.000000000000001   8.469530290587301 
6 1   0.000000000000001   2.532231612856766  10.818943597989648 
