#Generated by cif2cell 1.2.45.  :  Failed to get author information, No journal information.

8 atoms
1 atom types

0.0 5.762862 xlo xhi
0.0 5.762862 ylo yhi
0.0 5.762862 zlo zhi
3.52873525111e-16 3.52873525111e-16 3.52873525111e-16 xy xz yz

Masses

1 72.63 # Ge

Atoms

1 1   2.881431000000000   0.000000000000000   2.881431000000000 
2 1   1.440715500000000   1.440715500000000   1.440715500000000 
3 1   2.881431000000000   2.881431000000000   0.000000000000000 
4 1   1.440715500000000   4.322146500000001   4.322146500000001 
5 1   0.000000000000000   0.000000000000000   0.000000000000000 
6 1   4.322146500000001   1.440715500000000   4.322146500000001 
7 1   0.000000000000000   2.881431000000000   2.881431000000000 
8 1   4.322146500000001   4.322146500000001   1.440715500000000 
