#Generated by cif2cell 1.2.45.  :  Failed to get author information, No journal information.

8 atoms
1 atom types

0.0 3.306110 xlo xhi
0.0 11.221102 ylo yhi
0.0 4.552418 zlo zhi
6.8709433236e-16 2.78755206604e-16 2.78755206604e-16 xy xz yz

Atoms

1 1   0.000000000000001   6.670877812387999   4.158556451894000 
2 1   1.653055000000001  10.160775187612000   0.393861548106000 
3 1   0.000000000000001  10.160775187612000   1.882347451894000 
4 1   1.653055000000001   6.670877812387999   2.670070548106000 
5 1   1.653055000000000   1.060326812388000   4.158556451894000 
6 1   0.000000000000000   4.550224187612000   0.393861548106000 
7 1   1.653055000000000   4.550224187612000   1.882347451894000 
8 1   0.000000000000000   1.060326812388000   2.670070548106000 
