#Generated by cif2cell 1.2.45.  :  Failed to get author information, No journal information.

4 atoms
1 atom types

0.0 4.171288 xlo xhi
0.0 4.171288 ylo yhi
0.0 4.171288 zlo zhi
2.55417724876e-16 2.55417724876e-16 2.55417724876e-16 xy xz yz

Masses

1 196.966 # Au

Atoms

1 1   0.000000000000000   0.000000000000000   0.000000000000000 
2 1   0.000000000000000   2.085644000000000   2.085644000000000 
3 1   2.085644000000000   0.000000000000000   2.085644000000000 
4 1   2.085644000000000   2.085644000000000   0.000000000000000 
