#Generated by cif2cell 1.2.45.  :  Failed to get author information, No journal information.

2 atoms
1 atom types

0.0 3.593000 xlo xhi
0.0 3.111629 ylo yhi
0.0 5.653700 zlo zhi
-1.7965 3.46189280417e-16 5.99617422718e-16 xy xz yz

Atoms

1 1   1.796500000000001   1.037209758599163   4.240275000000000 
2 1   0.000000000000001   2.074419517198325   1.413425000000000 
