#Generated by cif2cell 1.2.45.  :  Failed to get author information, No journal information.

2 atoms
1 atom types

0.0 12.000000 xlo xhi
0.0 12.000000 ylo yhi
0.0 12.000000 zlo zhi
0.0 0.0 0.0 xy xz yz

Atoms

1 1   0.000000000000000   0.000000000000000   0.000000000000000 
2 1   0.740000000000000   0.000000000000000   0.000000000000000 
