#Generated by cif2cell 1.2.45.  :  Failed to get author information, No journal information.

2 atoms
1 atom types

0.0 2.280000 xlo xhi
0.0 1.974538 ylo yhi
0.0 3.584300 zlo zhi
-1.14 0.0 0.0 xy xz yz

Atoms

1 1   1.140000000000000   0.658179306876173   2.688225000000000 
2 1   0.000000000000000   1.316358613752347   0.896075000000000 
