#Generated by cif2cell 1.2.45.  :  Failed to get author information, No journal information.

2 atoms
1 atom types

0.0 3.577300 xlo xhi
0.0 3.098033 ylo yhi
0.0 5.615800 zlo zhi
-1.78865 3.43868574733e-16 5.95597842563e-16 xy xz yz

Atoms

1 1   1.788650000000000   1.032677558986025   4.211850000000000 
2 1   0.000000000000001   2.065355117972048   1.403950000000000 
