#Generated by cif2cell 1.2.45.  :  Failed to get author information, No journal information.

8 atoms
1 atom types

0.0 6.646268 xlo xhi
0.0 6.646268 ylo yhi
0.0 6.646268 zlo zhi
4.06966541624e-16 4.06966541624e-16 4.06966541624e-16 xy xz yz

Atoms

1 1   1.661567000000000   1.661567000000000   1.661567000000000 
2 1   3.323134000000000   0.000000000000000   3.323134000000000 
3 1   1.661567000000000   4.984701000000000   4.984701000000000 
4 1   3.323134000000000   3.323134000000000   0.000000000000000 
5 1   4.984701000000000   1.661567000000000   4.984701000000000 
6 1   0.000000000000000   0.000000000000000   0.000000000000000 
7 1   4.984701000000000   4.984701000000000   1.661567000000000 
8 1   0.000000000000000   3.323134000000000   3.323134000000000 
