#Generated by cif2cell 1.2.45.  :  Failed to get author information, No journal information.

8 atoms
1 atom types

0.0 3.570170 xlo xhi
0.0 3.570170 ylo yhi
0.0 3.570170 zlo zhi
2.18609863146e-16 2.18609863146e-16 2.18609863146e-16 xy xz yz

Masses

1 12.0106 # C

Atoms

1 1   0.892542500000000   2.677631070170000   0.892542500000000 
2 1   0.000000000000000   0.000000000000000   1.785085000000000 
3 1   0.892542500000000   0.892542500000000   2.677631070170000 
4 1   0.000000000000000   1.785085000000000   0.000000000000000 
5 1   2.677631070170000   2.677631070170000   2.677631070170000 
6 1   1.785085000000000   0.000000000000000   0.000000000000000 
7 1   2.677631070170000   0.892542500000000   0.892542500000000 
8 1   1.785085000000000   1.785085000000000   1.785085000000000 
