#Generated by cif2cell 1.2.45.  :  Failed to get author information, No journal information.

3 atoms
1 atom types

0.0 4.512374 xlo xhi
0.0 3.907831 ylo yhi
0.0 5.959899 zlo zhi
-2.25618721 3.6493856168e-16 6.3209213047e-16 xy xz yz

Atoms

1 1   1.213603100259000   0.000000000000000   1.986633000000000 
2 1  -0.606801550129500   1.051011114935848   3.973266000000000 
3 1   1.649385659870501   2.856819764171225   0.000000000000000 
