#Generated by cif2cell 1.2.45.  :  Failed to get author information, No journal information.

2 atoms
1 atom types

0.0 3.608300 xlo xhi
0.0 3.124888 ylo yhi
0.0 5.629810 zlo zhi
-1.8041544546 3.44726439815e-16 5.9708358814e-16 xy xz yz

Masses

1 162.5 # Dy

Atoms

1 1   1.804148515131965   1.041629479871277   4.222357500000000 
2 1  -0.000002969736071   2.083258959742553   1.407452500000000 
