#Generated by cif2cell 1.2.45.  :  Failed to get author information, No journal information.

2 atoms
1 atom types

0.0 3.239232 xlo xhi
0.0 2.805257 ylo yhi
0.0 5.172220 zlo zhi
-1.619615955 3.16707133374e-16 5.48552846124e-16 xy xz yz

Masses

1 91.224 # Zr

Atoms

1 1   1.619615955000000   0.935085707603063   3.879165000000000 
2 1   0.000000000000001   1.870171415206126   1.293055000000000 
