#Generated by cif2cell 1.2.45.  :  Failed to get author information, No journal information.

2 atoms
1 atom types

0.0 3.601000 xlo xhi
0.0 3.118557 ylo yhi
0.0 5.693600 zlo zhi
-1.8005 3.48632450781e-16 6.0384911792e-16 xy xz yz

Atoms

1 1   0.000000000000001   2.079038319351842   1.423400000000000 
2 1   1.800500000000000   1.039519159675922   4.270200000000000 
