#Generated by cif2cell 1.2.45.  :  Failed to get author information, No journal information.

2 atoms
1 atom types

0.0 5.262120 xlo xhi
0.0 5.262120 ylo yhi
0.0 5.262120 zlo zhi
3.2221190053e-16 3.2221190053e-16 3.2221190053e-16 xy xz yz

Atoms

1 1   0.000000000000000   0.000000000000000   0.000000000000000 
2 1   2.631059835000000   2.631059835000000   2.631059835000000 
