#Generated by cif2cell 1.2.45.  :  Failed to get author information, No journal information.

2 atoms
1 atom types

0.0 3.772000 xlo xhi
0.0 3.266648 ylo yhi
0.0 12.144000 zlo zhi
-1.886 7.43605536442e-16 1.28796256991e-15 xy xz yz

Atoms

1 1   1.886000000000001   1.088882607691635   9.108000000000001 
2 1   0.000000000000001   2.177765215383269   3.036000000000000 
