#Generated by cif2cell 1.2.45.  :  Failed to get author information, No journal information.

8 atoms
1 atom types

0.0 5.468728 xlo xhi
0.0 5.468728 ylo yhi
0.0 5.468728 zlo zhi
3.3486301203e-16 3.3486301203e-16 3.3486301203e-16 xy xz yz

Masses

1 28.085 # Si

Atoms

1 1   1.367182000000000   4.101546000000000   1.367182000000000 
2 1   0.000000000000000   0.000000000000000   2.734364000000000 
3 1   1.367182000000000   1.367182000000000   4.101546000000000 
4 1   0.000000000000000   2.734364000000000   0.000000000000000 
5 1   4.101546000000000   4.101546000000000   4.101546000000000 
6 1   2.734364000000000   0.000000000000000   0.000000000000000 
7 1   4.101546000000000   1.367182000000000   1.367182000000000 
8 1   2.734364000000000   2.734364000000000   2.734364000000000 
