#Generated by cif2cell 1.2.45.  :  Failed to get author information, No journal information.

4 atoms
1 atom types

0.0 6.202300 xlo xhi
0.0 6.202300 ylo yhi
0.0 6.202300 zlo zhi
3.79781342118e-16 3.79781342118e-16 3.79781342118e-16 xy xz yz

Atoms

1 1   0.000000000000000   0.000000000000000   0.000000000000000 
2 1   0.000000000000000   3.101150000000000   3.101150000000000 
3 1   3.101150000000000   0.000000000000000   3.101150000000000 
4 1   3.101150000000000   3.101150000000000   0.000000000000000 
