#Generated by cif2cell 1.2.45.  :  Failed to get author information, No journal information.

2 atoms
1 atom types

0.0 3.651710 xlo xhi
0.0 3.162475 ylo yhi
0.0 5.682640 zlo zhi
-1.82585334413 3.47961344335e-16 6.02686363075e-16 xy xz yz

Masses

1 88.905 # Y

Atoms

1 1   1.825855551955857   1.054158194422894   4.261980000000000 
2 1   0.000001103911713   2.108316388845787   1.420660000000000 
