#Generated by cif2cell 1.2.45.  :  Failed to get author information, No journal information.

2 atoms
1 atom types

0.0 2.752010 xlo xhi
0.0 2.383302 ylo yhi
0.0 4.337340 zlo zhi
-1.376 2.65585477391e-16 4.60007540593e-16 xy xz yz

Masses

1 190.23 # Os

Atoms

1 1   1.376006666666667   0.794433970404925   1.084335000000000 
2 1   0.000003333333334   1.588867940809850   3.253005000000000 
