#Generated by cif2cell 1.2.45.  :  Failed to get author information, No journal information.

2 atoms
1 atom types

0.0 3.620000 xlo xhi
0.0 3.135012 ylo yhi
0.0 5.990000 zlo zhi
-1.81 3.66781716345e-16 6.35284567996e-16 xy xz yz

Atoms

1 1   1.810000000000000   1.045003987233223   4.492500000000000 
2 1   0.000000000000001   2.090007974466445   1.497500000000000 
