#Generated by cif2cell 1.2.45.  :  Failed to get author information, No journal information.

4 atoms
1 atom types

0.0 3.843898 xlo xhi
0.0 3.843898 ylo yhi
0.0 3.843898 zlo zhi
2.35370869097e-16 2.35370869097e-16 2.35370869097e-16 xy xz yz

Masses

1 102.905 # Rh

Atoms

1 1   0.000000000000000   0.000000000000000   0.000000000000000 
2 1   0.000000000000000   1.921949000000000   1.921949000000000 
3 1   1.921949000000000   0.000000000000000   1.921949000000000 
4 1   1.921949000000000   1.921949000000000   0.000000000000000 
