#Generated by cif2cell 1.2.45.  :  Failed to get author information, No journal information.

2 atoms
1 atom types

0.0 3.550970 xlo xhi
0.0 3.075222 ylo yhi
0.0 5.517900 zlo zhi
-1.77547892655 3.37873928651e-16 5.85214575096e-16 xy xz yz

Masses

1 168.934 # Tm

Atoms

1 1   1.775487024484981   1.025074062527213   4.138425000000000 
2 1   0.000004048969961   2.050148125054426   1.379475000000000 
