#Generated by cif2cell 1.2.44.  :  Failed to get author information, No journal information.

2 atoms
1 atom types

0.0 2.500780 xlo xhi
0.0 2.165739 ylo yhi
0.0 4.033330 zlo zhi
-1.25039 2.4697023372e-16 4.27764992761e-16 xy xz yz

Atoms

1 1   1.250390000000000   0.721913003092016   3.024997500000000 
2 1   0.000000000000001   1.443826006184032   1.008332500000000 
