#Generated by cif2cell 1.2.45.  :  Failed to get author information, No journal information.

2 atoms
1 atom types

0.0 3.594300 xlo xhi
0.0 3.112754 ylo yhi
0.0 5.591650 zlo zhi
-1.79715108656 3.42389813723e-16 5.93036792395e-16 xy xz yz

Masses

1 164.93 # Ho

Atoms

1 1   1.797149637814533   1.037584827166175   4.193737499999999 
2 1  -0.000000724370934   2.075169654332349   1.397912500000000 
