#Generated by cif2cell 1.2.45.  :  Failed to get author information, No journal information.

2 atoms
1 atom types

0.0 2.767980 xlo xhi
0.0 2.397141 ylo yhi
0.0 4.464190 zlo zhi
-1.38398958162 2.73352799714e-16 4.73460842078e-16 xy xz yz

Masses

1 186.207 # Re

Atoms

1 1   1.383990139460017   0.799047079573013   3.348142500000000 
2 1   0.000000278920034   1.598094159146025   1.116047500000000 
