#Generated by cif2cell 1.2.45.  :  Failed to get author information, No journal information.

2 atoms
1 atom types

0.0 2.626730 xlo xhi
0.0 2.274815 ylo yhi
0.0 5.207234 zlo zhi
-1.313365235 3.18851122526e-16 5.52266344265e-16 xy xz yz

Atoms

1 1   1.313365235000000   0.758271771971547   3.905425500000000 
2 1   0.000000000000001   1.516543543943093   1.301808500000000 
