#Generated by cif2cell 1.2.45.  :  Failed to get author information, No journal information.

2 atoms
1 atom types

0.0 3.187414 xlo xhi
0.0 3.187414 ylo yhi
0.0 3.187414 zlo zhi
1.95172817633e-16 1.95172817633e-16 1.95172817633e-16 xy xz yz

Masses

1 183.84 # W

Atoms

1 1   0.000000000000000   0.000000000000000   0.000000000000000 
2 1   1.593707000000000   1.593707000000000   1.593707000000000 
