#Generated by cif2cell 1.2.45.  :  Failed to get author information, No journal information.

2 atoms
1 atom types

0.0 5.030300 xlo xhi
0.0 5.030300 ylo yhi
0.0 5.030300 zlo zhi
3.08017039688e-16 3.08017039688e-16 3.08017039688e-16 xy xz yz

Atoms

1 1   0.000000000000000   0.000000000000000   0.000000000000000 
2 1   2.515150000000000   2.515150000000000   2.515150000000000 
