#Generated by cif2cell 1.2.45.  :  Failed to get author information, No journal information.

1 atoms
1 atom types

0.0 11.450000 xlo xhi
0.0 5.220521 ylo yhi
0.0 10.627276 zlo zhi
1.74045207265 -0.0732112030867 3.7236776228 xy xz yz

Atoms

1 1   0.000000000000000   0.000000000000000   0.000000000000000 
