#Generated by cif2cell 1.2.45.  :  Failed to get author information, No journal information.

2 atoms
1 atom types

0.0 3.203028 xlo xhi
0.0 2.773903 ylo yhi
0.0 5.126691 zlo zhi
-1.601513865 3.13919286168e-16 5.43724153119e-16 xy xz yz

Masses

1 24.305 # Mg

Atoms

1 1   1.601513865000000   0.924634461068668   3.845018250000000 
2 1   0.000000000000001   1.849268922137336   1.281672750000000 
