#Generated by cif2cell 1.2.45.  :  Failed to get author information, No journal information.

2 atoms
1 atom types

0.0 3.311440 xlo xhi
0.0 2.867791 ylo yhi
0.0 5.157360 zlo zhi
-1.65572100105 3.15797220803e-16 5.46977051787e-16 xy xz yz

Masses

1 44.955 # Sc

Atoms

1 1   1.655719666317380   0.955930195050819   1.289340000000000 
2 1  -0.000000667365240   1.911860390101638   3.868020000000000 
