#Generated by cif2cell 1.2.45.  :  Failed to get author information, No journal information.

4 atoms
1 atom types

0.0 4.429000 xlo xhi
0.0 4.429000 ylo yhi
0.0 4.429000 zlo zhi
2.71198033671e-16 2.71198033671e-16 2.71198033671e-16 xy xz yz

Atoms

1 1   0.000000000000000   0.000000000000000   0.000000000000000 
2 1   0.000000000000000   2.214500000000000   2.214500000000000 
3 1   2.214500000000000   0.000000000000000   2.214500000000000 
4 1   2.214500000000000   2.214500000000000   0.000000000000000 
