#Generated by cif2cell 1.2.45.  :  Failed to get author information, No journal information.

2 atoms
1 atom types

0.0 4.172622 xlo xhi
0.0 4.172622 ylo yhi
0.0 4.172622 zlo zhi
2.55499408818e-16 2.55499408818e-16 2.55499408818e-16 xy xz yz

Atoms

1 1   0.000000000000000   0.000000000000000   0.000000000000000 
2 1   2.086311000000000   2.086311000000000   2.086311000000000 
