#Generated by cif2cell 1.2.45.  :  Failed to get author information, No journal information.

2 atoms
1 atom types

0.0 2.500784 xlo xhi
0.0 2.165742 ylo yhi
0.0 4.033331 zlo zhi
-1.2503919 2.46970294953e-16 4.27765098818e-16 xy xz yz

Atoms

1 1   1.250391900000000   0.721914100057528   3.024998250000000 
2 1   0.000000000000001   1.443828200115055   1.008332750000000 
