#Generated by cif2cell 1.2.45.  :  Failed to get author information, No journal information.

36 atoms
1 atom types

0.0 4.899978 xlo xhi
0.0 4.243505 ylo yhi
0.0 12.550985 zlo zhi
-2.44998885 7.68526158889e-16 1.33112635414e-15 xy xz yz

Masses

1 10.8135 # B

Atoms

1 1   1.577121546954989   0.910551521389188   2.822507222870884 
2 1   2.449988874499889   2.422402080963820   2.822507222870884 
3 1   3.322856202044789   0.910551521389188   2.822507222870884 
4 1   4.027110372455100   0.503950186524877   1.361154285292500 
5 1   0.872867327544900   0.503950186524877   1.361154285292500 
6 1   2.449988850000000   3.235604793127491   1.361154285292500 
7 1   1.002849060492689   3.407998590860146   0.304227458756284 
8 1   0.000000024499889   1.671013108199147   0.304227458756284 
9 1  -1.002849011492911   3.407998590860146   0.304227458756284 
10 1   1.002849035992801   2.250008283231164   3.879434049407100 
11 1  -1.002849035992800   2.250008283231164   3.879434049407100 
12 1   0.000000000000001   3.986993765892164   3.879434049407100 
13 1  -0.872867352044788   2.325053271738304   7.006168856544115 
14 1  -0.000000024499887   3.836903831312936   7.006168856544115 
15 1   0.872867303045012   2.325053271738304   7.006168856544115 
16 1   1.577121546954989   1.918451894438943   5.544815793455884 
17 1   3.322856202044789   1.918451894438943   5.544815793455884 
18 1   2.449988874499889   0.406601334864311   5.544815793455884 
19 1   1.002849011492912   0.578995175032017   4.487889092429516 
20 1   2.449988825500113   3.085514858548263   4.487889092429516 
21 1   3.897128639507312   0.578995175032017   4.487889092429516 
22 1  -1.447139789507310   3.664509991145229   8.063095557570485 
23 1   1.447139838507089   3.664509991145229   8.063095557570485 
24 1   0.000000024499889   1.157990307628983   8.063095557570485 
25 1   1.577121522455102   3.739554979652369  11.189830364707500 
26 1   0.000000000000001   1.007900373049756  11.189830364707500 
27 1  -1.577121522455098   3.739554979652369  11.189830364707500 
28 1  -0.872867352044787   3.332953644788059   9.728477427129116 
29 1   0.872867303045013   3.332953644788059   9.728477427129116 
30 1  -0.000000024499888   1.821103085213427   9.728477427129116 
31 1   3.452837885992801   1.993496882946083   8.671550600592900 
32 1   2.449988850000001   0.256511400285083   8.671550600592900 
33 1   1.447139814007201   1.993496882946083   8.671550600592900 
34 1   3.452837861492912   0.835506575317100  12.246757191243715 
35 1   1.447139789507312   0.835506575317100  12.246757191243715 
36 1   2.449988825500113   2.572492057978100  12.246757191243715 
