#Generated by cif2cell 1.2.45.  :  Failed to get author information, No journal information.

9 atoms
1 atom types

0.0 3.660809 xlo xhi
0.0 3.170354 ylo yhi
0.0 26.392051 zlo zhi
-1.830404625 1.61604700961e-15 2.79907552807e-15 xy xz yz

Masses

1 150.36 # Sm

Atoms

1 1   0.000000000000000   0.000000000000000   0.000000000000000 
2 1   0.000000000000000   0.000000000000001   5.869618427698520 
3 1   1.830404625000001   1.056784602969686   2.927731657661312 
4 1   1.830404625000001   1.056784602969687   8.797350173333333 
5 1   1.830404625000001   1.056784602969687  14.666968513058354 
6 1   0.000000000000001   2.113569205939373  11.725082006941649 
7 1   0.000000000000002   2.113569205939374  17.594700346666666 
8 1   0.000000000000002   2.113569205939374  23.464318862338690 
9 1   0.000000000000001   0.000000000000002  20.522432092301482 
