#Generated by cif2cell 1.2.45.  :  Failed to get author information, No journal information.

6 atoms
1 atom types

0.0 4.609586 xlo xhi
0.0 3.992019 ylo yhi
0.0 11.975473 zlo zhi
-2.304793055 7.33286238785e-16 1.27008902207e-15 xy xz yz

Masses

1 208.98 # Bi

Atoms

1 1   0.000000000000000   0.000000000000000   3.200038014545280 
2 1   2.304793055000001   1.330672890730630   0.791786305536476 
3 1   2.304793055000001   1.330672890730631   7.191862334627037 
4 1   0.000000000000001   2.661345781461260   4.783610745372964 
5 1   0.000000000000001   2.661345781461261  11.183686774463524 
6 1   0.000000000000001   0.000000000000001   8.775435065454721 
