#Generated by cif2cell 1.2.45.  :  Failed to get author information, No journal information.

4 atoms
1 atom types

0.0 4.038930 xlo xhi
0.0 4.038930 ylo yhi
0.0 4.038930 zlo zhi
2.47313134824e-16 2.47313134824e-16 2.47313134824e-16 xy xz yz

Masses

1 26.981 # Al

Atoms

1 1   0.000000000000000   0.000000000000000   0.000000000000000 
2 1   0.000000000000000   2.019465000000000   2.019465000000000 
3 1   2.019465000000000   0.000000000000000   2.019465000000000 
4 1   2.019465000000000   2.019465000000000   0.000000000000000 
