#Generated by cif2cell 1.2.45.  :  Failed to get author information, No journal information.

2 atoms
1 atom types

0.0 2.760716 xlo xhi
0.0 2.390850 ylo yhi
0.0 4.421340 zlo zhi
-1.380358175 2.70728993947e-16 4.68916372598e-16 xy xz yz

Masses

1 98 # Tc

Atoms

1 1   1.380358175000000   0.796950163914351   3.316005000000000 
2 1   0.000000000000001   1.593900327828701   1.105335000000000 
