#Generated by cif2cell 1.2.45.  :  Failed to get author information, No journal information.

4 atoms
1 atom types

0.0 3.976770 xlo xhi
0.0 3.976770 ylo yhi
0.0 3.976770 zlo zhi
2.43506932572e-16 2.43506932572e-16 2.43506932572e-16 xy xz yz

Masses

1 195.084 # Pt

Atoms

1 1   0.000000000000000   0.000000000000000   0.000000000000000 
2 1   0.000000000000000   1.988385000000000   1.988385000000000 
3 1   1.988385000000000   0.000000000000000   1.988385000000000 
4 1   1.988385000000000   1.988385000000000   0.000000000000000 
