#Generated by cif2cell 1.2.45.  :  Failed to get author information, No journal information.

2 atoms
1 atom types

0.0 2.933814 xlo xhi
0.0 2.540757 ylo yhi
0.0 4.657009 zlo zhi
-1.4669069 2.85159558273e-16 4.93910843192e-16 xy xz yz

Masses

1 47.867 # Ti

Atoms

1 1   1.466906900000000   0.846919093591120   3.492756750000000 
2 1   0.000000000000001   1.693838187182239   1.164252250000000 
