#Generated by cif2cell 1.2.45.  :  Failed to get author information, No journal information.

2 atoms
1 atom types

0.0 2.259826 xlo xhi
0.0 1.957066 ylo yhi
0.0 3.569878 zlo zhi
-1.129912845 2.18591983302e-16 3.78612421207e-16 xy xz yz

Masses

1 9.012 # Be

Atoms

1 1   1.129912845000000   0.652355485221566   2.677408500000000 
2 1   0.000000000000000   1.304710970443132   0.892469500000000 
