#Generated by cif2cell 1.2.45.  :  Failed to get author information, No journal information.

2 atoms
1 atom types

0.0 2.874025 xlo xhi
0.0 2.874025 ylo yhi
0.0 2.874025 zlo zhi
1.75983291766e-16 1.75983291766e-16 1.75983291766e-16 xy xz yz

Masses

1 51.9961 # Cr

Atoms

1 1   0.000000000000000   0.000000000000000   0.000000000000000 
2 1   1.437012630000000   1.437012630000000   1.437012630000000 
