#Generated by cif2cell 1.2.45.  :  Failed to get author information, No journal information.

6 atoms
1 atom types

0.0 3.827886 xlo xhi
0.0 3.315046 ylo yhi
0.0 10.616747 zlo zhi
-1.91394292 6.50088290325e-16 1.12598594825e-15 xy xz yz

Masses

1 74.921 # As

Atoms

1 1   0.000000000000000   0.000000000000000   2.413399034880400 
2 1   1.913942920000000   1.105015460075579   1.125516753063775 
3 1   1.913942920000000   1.105015460075579   5.952314822824574 
4 1   0.000000000000001   2.210030920151157   4.664432647175425 
5 1   0.000000000000001   2.210030920151158   9.491230716936224 
6 1   0.000000000000001   0.000000000000001   8.203348435119601 
