#Generated by cif2cell 1.2.45.  :  Failed to get author information, No journal information.

2 atoms
1 atom types

0.0 2.850000 xlo xhi
0.0 2.850000 ylo yhi
0.0 2.850000 zlo zhi
1.74512168878e-16 1.74512168878e-16 1.74512168878e-16 xy xz yz

Masses

1 54.938 # Mn

Atoms

1 1   0.000000000000000   0.000000000000000   0.000000000000000 
2 1   1.425000000000000   1.425000000000000   1.425000000000000 
