#Generated by cif2cell 1.2.45.  :  Failed to get author information, No journal information.

4 atoms
1 atom types

0.0 4.319890 xlo xhi
0.0 4.319890 ylo yhi
0.0 4.319890 zlo zhi
2.64516973058e-16 2.64516973058e-16 2.64516973058e-16 xy xz yz

Masses

1 6.9675 # Li

Atoms

1 1   0.000000000000000   0.000000000000000   0.000000000000000 
2 1   0.000000000000000   2.159945000000000   2.159945000000000 
3 1   2.159945000000000   0.000000000000000   2.159945000000000 
4 1   2.159945000000000   2.159945000000000   0.000000000000000 
