--------------------------------------------------------------------------
WARNING: Linux kernel CMA support was requested via the
btl_vader_single_copy_mechanism MCA variable, but CMA support is
not available due to restrictive ptrace settings.

The vader shared memory BTL will fall back on another single-copy
mechanism if one is available. This may result in lower performance.

  Local host: DESKTOP-12SE80T
--------------------------------------------------------------------------

     Program PWSCF v.6.4.1 starts on  6Nov2020 at 14:17: 8 

     This program is part of the open-source Quantum ESPRESSO suite
     for quantum simulation of materials; please cite
         "P. Giannozzi et al., J. Phys.:Condens. Matter 21 395502 (2009);
         "P. Giannozzi et al., J. Phys.:Condens. Matter 29 465901 (2017);
          URL http://www.quantum-espresso.org", 
     in publications or presentations arising from this work. More details at
     http://www.quantum-espresso.org/quote

     Parallel version (MPI), running on     2 processors

     MPI processes distributed on     1 nodes
     R & G space division:  proc/nbgrp/npool/nimage =       2
     Waiting for input...
     Reading input from standard input

     Current dimensions of program PWSCF are:
     Max number of different atomic species (ntypx) = 10
     Max number of k-points (npk) =  40000
     Max angular momentum in pseudopotentials (lmaxx) =  3
               file Cd.pbe-n-kjpaw_psl.1.0.0.UPF: wavefunction(s)  5S 4D renormalized

     Subspace diagonalization in iterative solution of the eigenvalue problem:
     a serial algorithm will be used

     Message from routine setup:
     DEPRECATED: symmetry with ibrav=0, use correct ibrav instead

     Parallelization info
     --------------------
     sticks:   dense  smooth     PW     G-vecs:    dense   smooth      PW
     Min         708     156     57                42722     4728     954
     Max         709     157     64                42725     4735     955
     Sum        1417     313    121                85447     9463    1909



     bravais-lattice index     =            0
     lattice parameter (alat)  =       5.6840  a.u.
     unit-cell volume          =     314.1739 (a.u.)^3
     number of atoms/cell      =            2
     number of atomic types    =            1
     number of electrons       =        24.00
     number of Kohn-Sham states=           16
     kinetic-energy cutoff     =      37.0000  Ry
     charge density cutoff     =     638.0000  Ry
     convergence threshold     =      1.0E-06
     mixing beta               =       0.7000
     number of iterations used =            8  plain     mixing
     Exchange-correlation      = SLA PW PBX PBC ( 1  4  3  4 0 0)
     nstep                     =           50


     celldm(1)=   5.684013  celldm(2)=   0.000000  celldm(3)=   0.000000
     celldm(4)=   0.000000  celldm(5)=   0.000000  celldm(6)=   0.000000

     crystal axes: (cart. coord. in units of alat)
               a(1) = (   1.000000   0.000000   0.000000 )  
               a(2) = (  -0.500000   0.866025   0.000000 )  
               a(3) = (   0.000000   0.000000   1.975488 )  

     reciprocal axes: (cart. coord. in units 2 pi/alat)
               b(1) = (  1.000000  0.577350 -0.000000 )  
               b(2) = (  0.000000  1.154701  0.000000 )  
               b(3) = (  0.000000 -0.000000  0.506204 )  


     PseudoPot. # 1 for Cd read from file:
     ./potentials/Cd.pbe-n-kjpaw_psl.1.0.0.UPF
     MD5 check sum: f937b97fdfaed69b45145e9d47a28171
     Pseudo is Projector augmented-wave + core cor, Zval = 12.0
     Generated using "atomic" code by A. Dal Corso v.6.3
     Shape of augmentation charge: PSQ
     Using radial grid of 1239 points,  6 beta functions with: 
                l(1) =   0
                l(2) =   0
                l(3) =   1
                l(4) =   1
                l(5) =   2
                l(6) =   2
     Q(r) pseudized with 0 coefficients 


     atomic species   valence    mass     pseudopotential
        Cd            12.00   112.41100     Cd( 1.00)

     Starting magnetic structure 
     atomic species   magnetization
        Cd           1.000

     24 Sym. Ops., with inversion, found (12 have fractional translation)



   Cartesian axes

     site n.     atom                  positions (alat units)
         1           Cd  tau(   1) = (   0.5000000   0.2886751   1.4816158  )
         2           Cd  tau(   2) = (  -0.0000000   0.5773503   0.4938719  )

     number of k points=    84  Methfessel-Paxton smearing, width (Ry)=  0.0200
                       cart. coord. in units 2pi/alat
        k(    1) = (   0.0416667   0.0721688   0.0632755), wk =   0.0069444
        k(    2) = (   0.0416667   0.0721688   0.1898265), wk =   0.0069444
        k(    3) = (   0.0416667   0.1683938   0.0632755), wk =   0.0138889
        k(    4) = (   0.0416667   0.1683938   0.1898265), wk =   0.0138889
        k(    5) = (   0.0416667   0.2646189   0.0632755), wk =   0.0138889
        k(    6) = (   0.0416667   0.2646189   0.1898265), wk =   0.0138889
        k(    7) = (   0.0416667   0.3608439   0.0632755), wk =   0.0138889
        k(    8) = (   0.0416667   0.3608439   0.1898265), wk =   0.0138889
        k(    9) = (   0.0416667   0.4570690   0.0632755), wk =   0.0138889
        k(   10) = (   0.0416667   0.4570690   0.1898265), wk =   0.0138889
        k(   11) = (   0.0416667   0.5532940   0.0632755), wk =   0.0138889
        k(   12) = (   0.0416667   0.5532940   0.1898265), wk =   0.0138889
        k(   13) = (   0.0416667  -0.5051815   0.0632755), wk =   0.0138889
        k(   14) = (   0.0416667  -0.5051815   0.1898265), wk =   0.0138889
        k(   15) = (   0.0416667  -0.4089564   0.0632755), wk =   0.0138889
        k(   16) = (   0.0416667  -0.4089564   0.1898265), wk =   0.0138889
        k(   17) = (   0.0416667  -0.3127314   0.0632755), wk =   0.0138889
        k(   18) = (   0.0416667  -0.3127314   0.1898265), wk =   0.0138889
        k(   19) = (   0.0416667  -0.2165064   0.0632755), wk =   0.0138889
        k(   20) = (   0.0416667  -0.2165064   0.1898265), wk =   0.0138889
        k(   21) = (   0.0416667  -0.1202813   0.0632755), wk =   0.0138889
        k(   22) = (   0.0416667  -0.1202813   0.1898265), wk =   0.0138889
        k(   23) = (   0.0416667  -0.0240563   0.0632755), wk =   0.0069444
        k(   24) = (   0.0416667  -0.0240563   0.1898265), wk =   0.0069444
        k(   25) = (   0.1250000   0.2165064   0.0632755), wk =   0.0069444
        k(   26) = (   0.1250000   0.2165064   0.1898265), wk =   0.0069444
        k(   27) = (   0.1250000   0.3127314   0.0632755), wk =   0.0138889
        k(   28) = (   0.1250000   0.3127314   0.1898265), wk =   0.0138889
        k(   29) = (   0.1250000   0.4089564   0.0632755), wk =   0.0138889
        k(   30) = (   0.1250000   0.4089564   0.1898265), wk =   0.0138889
        k(   31) = (   0.1250000   0.5051815   0.0632755), wk =   0.0138889
        k(   32) = (   0.1250000   0.5051815   0.1898265), wk =   0.0138889
        k(   33) = (   0.1250000   0.6014065   0.0632755), wk =   0.0138889
        k(   34) = (   0.1250000   0.6014065   0.1898265), wk =   0.0138889
        k(   35) = (   0.1250000  -0.4570690   0.0632755), wk =   0.0138889
        k(   36) = (   0.1250000  -0.4570690   0.1898265), wk =   0.0138889
        k(   37) = (   0.1250000  -0.3608439   0.0632755), wk =   0.0138889
        k(   38) = (   0.1250000  -0.3608439   0.1898265), wk =   0.0138889
        k(   39) = (   0.1250000  -0.2646189   0.0632755), wk =   0.0138889
        k(   40) = (   0.1250000  -0.2646189   0.1898265), wk =   0.0138889
        k(   41) = (   0.1250000  -0.1683938   0.0632755), wk =   0.0138889
        k(   42) = (   0.1250000  -0.1683938   0.1898265), wk =   0.0138889
        k(   43) = (   0.1250000  -0.0721688   0.0632755), wk =   0.0069444
        k(   44) = (   0.1250000  -0.0721688   0.1898265), wk =   0.0069444
        k(   45) = (   0.2083333   0.3608439   0.0632755), wk =   0.0069444
        k(   46) = (   0.2083333   0.3608439   0.1898265), wk =   0.0069444
        k(   47) = (   0.2083333   0.4570690   0.0632755), wk =   0.0138889
        k(   48) = (   0.2083333   0.4570690   0.1898265), wk =   0.0138889
        k(   49) = (   0.2083333   0.5532940   0.0632755), wk =   0.0138889
        k(   50) = (   0.2083333   0.5532940   0.1898265), wk =   0.0138889
        k(   51) = (   0.2083333   0.6495191   0.0632755), wk =   0.0138889
        k(   52) = (   0.2083333   0.6495191   0.1898265), wk =   0.0138889
        k(   53) = (   0.2083333  -0.4089564   0.0632755), wk =   0.0138889
        k(   54) = (   0.2083333  -0.4089564   0.1898265), wk =   0.0138889
        k(   55) = (   0.2083333  -0.3127314   0.0632755), wk =   0.0138889
        k(   56) = (   0.2083333  -0.3127314   0.1898265), wk =   0.0138889
        k(   57) = (   0.2083333  -0.2165064   0.0632755), wk =   0.0138889
        k(   58) = (   0.2083333  -0.2165064   0.1898265), wk =   0.0138889
        k(   59) = (   0.2083333  -0.1202813   0.0632755), wk =   0.0069444
        k(   60) = (   0.2083333  -0.1202813   0.1898265), wk =   0.0069444
        k(   61) = (   0.2916667   0.5051815   0.0632755), wk =   0.0069444
        k(   62) = (   0.2916667   0.5051815   0.1898265), wk =   0.0069444
        k(   63) = (   0.2916667   0.6014065   0.0632755), wk =   0.0138889
        k(   64) = (   0.2916667   0.6014065   0.1898265), wk =   0.0138889
        k(   65) = (   0.2916667   0.6976316   0.0632755), wk =   0.0138889
        k(   66) = (   0.2916667   0.6976316   0.1898265), wk =   0.0138889
        k(   67) = (   0.2916667  -0.3608439   0.0632755), wk =   0.0138889
        k(   68) = (   0.2916667  -0.3608439   0.1898265), wk =   0.0138889
        k(   69) = (   0.2916667  -0.2646189   0.0632755), wk =   0.0138889
        k(   70) = (   0.2916667  -0.2646189   0.1898265), wk =   0.0138889
        k(   71) = (   0.2916667  -0.1683938   0.0632755), wk =   0.0069444
        k(   72) = (   0.2916667  -0.1683938   0.1898265), wk =   0.0069444
        k(   73) = (   0.3750000   0.6495191   0.0632755), wk =   0.0069444
        k(   74) = (   0.3750000   0.6495191   0.1898265), wk =   0.0069444
        k(   75) = (   0.3750000   0.7457441   0.0632755), wk =   0.0138889
        k(   76) = (   0.3750000   0.7457441   0.1898265), wk =   0.0138889
        k(   77) = (   0.3750000  -0.3127314   0.0632755), wk =   0.0138889
        k(   78) = (   0.3750000  -0.3127314   0.1898265), wk =   0.0138889
        k(   79) = (   0.3750000  -0.2165064   0.0632755), wk =   0.0069444
        k(   80) = (   0.3750000  -0.2165064   0.1898265), wk =   0.0069444
        k(   81) = (   0.4583333   0.7938566   0.0632755), wk =   0.0069444
        k(   82) = (   0.4583333   0.7938566   0.1898265), wk =   0.0069444
        k(   83) = (   0.4583333  -0.2646189   0.0632755), wk =   0.0069444
        k(   84) = (   0.4583333  -0.2646189   0.1898265), wk =   0.0069444

     Dense  grid:    85447 G-vectors     FFT dimensions: (  45,  45,  96)

     Smooth grid:     9463 G-vectors     FFT dimensions: (  24,  24,  48)

     Estimated max dynamical RAM per process >     201.53 MB

     Estimated total dynamical RAM >     403.05 MB
     Generating pointlists ...
     new r_m :   0.4125 (alat units)  2.3447 (a.u.) for type    1

     Initial potential from superposition of free atoms

     starting charge   23.99023, renormalised to   24.00000
     Starting wfcs are   18 randomized atomic wfcs
     Checking if some PAW data can be deallocated... 

     total cpu time spent up to now is       10.7 secs

     Self-consistent Calculation

     iteration #  1     ecut=    37.00 Ry     beta= 0.70
     Davidson diagonalization with overlap
     ethr =  1.00E-02,  avg # of iterations =  3.5

     total cpu time spent up to now is       22.4 secs

     total energy              =    -763.19151893 Ry
     Harris-Foulkes estimate   =    -760.55239201 Ry
     estimated scf accuracy    <       2.90391988 Ry

     total magnetization       =     1.69 Bohr mag/cell
     absolute magnetization    =     1.69 Bohr mag/cell

     iteration #  2     ecut=    37.00 Ry     beta= 0.70
     Davidson diagonalization with overlap
     ethr =  1.00E-02,  avg # of iterations =  1.0

     total cpu time spent up to now is       31.6 secs

     total energy              =    -763.58158230 Ry
     Harris-Foulkes estimate   =    -763.28655326 Ry
     estimated scf accuracy    <       0.30779044 Ry

     total magnetization       =     0.60 Bohr mag/cell
     absolute magnetization    =     0.60 Bohr mag/cell

     iteration #  3     ecut=    37.00 Ry     beta= 0.70
     Davidson diagonalization with overlap
     ethr =  1.28E-03,  avg # of iterations =  1.0

     total cpu time spent up to now is       43.7 secs

     total energy              =    -763.61122764 Ry
     Harris-Foulkes estimate   =    -763.61328126 Ry
     estimated scf accuracy    <       0.00805251 Ry

     total magnetization       =     0.07 Bohr mag/cell
     absolute magnetization    =     0.10 Bohr mag/cell

     iteration #  4     ecut=    37.00 Ry     beta= 0.70
     Davidson diagonalization with overlap
     c_bands:  1 eigenvalues not converged
     ethr =  3.36E-05,  avg # of iterations =  5.0

     total cpu time spent up to now is       65.2 secs

     total energy              =    -763.61963627 Ry
     Harris-Foulkes estimate   =    -763.61974520 Ry
     estimated scf accuracy    <       0.00079673 Ry

     total magnetization       =     0.03 Bohr mag/cell
     absolute magnetization    =     0.03 Bohr mag/cell

     iteration #  5     ecut=    37.00 Ry     beta= 0.70
     Davidson diagonalization with overlap
     ethr =  3.32E-06,  avg # of iterations =  3.6

     total cpu time spent up to now is       80.5 secs

     total energy              =    -763.61983277 Ry
     Harris-Foulkes estimate   =    -763.61980043 Ry
     estimated scf accuracy    <       0.00001778 Ry

     total magnetization       =     0.01 Bohr mag/cell
     absolute magnetization    =     0.01 Bohr mag/cell

     iteration #  6     ecut=    37.00 Ry     beta= 0.70
     Davidson diagonalization with overlap
     ethr =  7.41E-08,  avg # of iterations =  3.6

     total cpu time spent up to now is       98.0 secs

     total energy              =    -763.61985386 Ry
     Harris-Foulkes estimate   =    -763.61985580 Ry
     estimated scf accuracy    <       0.00000877 Ry

     total magnetization       =     0.00 Bohr mag/cell
     absolute magnetization    =     0.00 Bohr mag/cell

     iteration #  7     ecut=    37.00 Ry     beta= 0.70
     Davidson diagonalization with overlap
     ethr =  3.65E-08,  avg # of iterations =  1.5

     Magnetic moment per site:
     atom:    1    charge:   10.5753    magn:    0.0001    constr:    0.0000
     atom:    2    charge:   10.5753    magn:    0.0001    constr:    0.0000

     total cpu time spent up to now is      109.4 secs

     End of self-consistent calculation

     Number of k-points >= 100: set verbosity='high' to print the bands.

     the Fermi energy is    10.4829 ev

!    total energy              =    -763.61985492 Ry
     Harris-Foulkes estimate   =    -763.61985488 Ry
     estimated scf accuracy    <       0.00000052 Ry

     total all-electron energy =    -22378.718725 Ry

     The total energy is the sum of the following terms:

     one-electron contribution =     -38.52039478 Ry
     hartree contribution      =      45.14376684 Ry
     xc contribution           =     -45.72428589 Ry
     ewald contribution        =    -153.20323087 Ry
     one-center paw contrib.   =    -571.31551305 Ry
     smearing contrib. (-TS)   =      -0.00019717 Ry

     total magnetization       =     0.00 Bohr mag/cell
     absolute magnetization    =     0.00 Bohr mag/cell

     convergence has been achieved in   7 iterations

     Forces acting on atoms (cartesian axes, Ry/au):

     atom    1 type  1   force =     0.00000000    0.00000000    0.00000000
     atom    2 type  1   force =     0.00000000   -0.00000000    0.00000000

     Total force =     0.000000     Total SCF correction =     0.000000


     Computing stress (Cartesian axis) and pressure

          total   stress  (Ry/bohr**3)                   (kbar)     P=    2.51
   0.00002265   0.00000000   0.00000000          3.33      0.00      0.00
   0.00000000   0.00002265   0.00000000          0.00      3.33      0.00
   0.00000000   0.00000000   0.00000598          0.00      0.00      0.88


     BFGS Geometry Optimization

     number of scf cycles    =   1
     number of bfgs steps    =   0

     enthalpy new            =    -763.6198549181 Ry

     new trust radius        =       0.0020076426 bohr
     new conv_thr            =       0.0000010000 Ry

     new unit-cell volume =    314.57688 a.u.^3 (    46.61548 Ang^3 )
     density =      8.00862 g/cm^3

CELL_PARAMETERS (alat=  5.68401275)
   1.000566332   0.000000000   0.000000000
  -0.500283166   0.866515862   0.000000000
   0.000000000   0.000000000   1.975783110

ATOMIC_POSITIONS (crystal)
Cd       0.666666667   0.333333333   0.750000000
Cd       0.333333333   0.666666667   0.250000000



     Writing output data file pw.save/
     NEW-OLD atomic charge density approx. for the potential
     extrapolated charge   24.03073, renormalised to   24.00000

     total cpu time spent up to now is      132.3 secs

     Self-consistent Calculation

     iteration #  1     ecut=    37.00 Ry     beta= 0.70
     Davidson diagonalization with overlap
     ethr =  1.00E-06,  avg # of iterations =  2.8

     total cpu time spent up to now is      147.8 secs

     total energy              =    -763.61963537 Ry
     Harris-Foulkes estimate   =    -763.58219696 Ry
     estimated scf accuracy    <       0.00015349 Ry

     total magnetization       =     0.00 Bohr mag/cell
     absolute magnetization    =     0.00 Bohr mag/cell

     iteration #  2     ecut=    37.00 Ry     beta= 0.70
     Davidson diagonalization with overlap
     ethr =  6.40E-07,  avg # of iterations =  3.1

     total cpu time spent up to now is      164.6 secs

     total energy              =    -763.61982612 Ry
     Harris-Foulkes estimate   =    -763.61998335 Ry
     estimated scf accuracy    <       0.00038331 Ry

     total magnetization       =     0.00 Bohr mag/cell
     absolute magnetization    =     0.00 Bohr mag/cell

     iteration #  3     ecut=    37.00 Ry     beta= 0.70
     Davidson diagonalization with overlap
     ethr =  6.40E-07,  avg # of iterations =  2.1

     total cpu time spent up to now is      177.1 secs

     total energy              =    -763.61984479 Ry
     Harris-Foulkes estimate   =    -763.61985943 Ry
     estimated scf accuracy    <       0.00005283 Ry

     total magnetization       =     0.00 Bohr mag/cell
     absolute magnetization    =     0.00 Bohr mag/cell

     iteration #  4     ecut=    37.00 Ry     beta= 0.70
     Davidson diagonalization with overlap
     ethr =  2.20E-07,  avg # of iterations =  1.0

     total cpu time spent up to now is      187.5 secs

     total energy              =    -763.61984437 Ry
     Harris-Foulkes estimate   =    -763.61984723 Ry
     estimated scf accuracy    <       0.00002107 Ry

     total magnetization       =     0.00 Bohr mag/cell
     absolute magnetization    =     0.00 Bohr mag/cell

     iteration #  5     ecut=    37.00 Ry     beta= 0.70
     Davidson diagonalization with overlap
     ethr =  8.78E-08,  avg # of iterations =  1.2

     total cpu time spent up to now is      198.8 secs

     total energy              =    -763.61984474 Ry
     Harris-Foulkes estimate   =    -763.61984587 Ry
     estimated scf accuracy    <       0.00000890 Ry

     total magnetization       =     0.00 Bohr mag/cell
     absolute magnetization    =     0.00 Bohr mag/cell

     iteration #  6     ecut=    37.00 Ry     beta= 0.70
     Davidson diagonalization with overlap
     ethr =  3.71E-08,  avg # of iterations =  1.7

     total cpu time spent up to now is      210.0 secs

     total energy              =    -763.61984510 Ry
     Harris-Foulkes estimate   =    -763.61984513 Ry
     estimated scf accuracy    <       0.00000585 Ry

     total magnetization       =     0.00 Bohr mag/cell
     absolute magnetization    =     0.00 Bohr mag/cell

     iteration #  7     ecut=    37.00 Ry     beta= 0.70
     Davidson diagonalization with overlap
     ethr =  2.44E-08,  avg # of iterations =  1.0

     total cpu time spent up to now is      221.1 secs

     total energy              =    -763.61984417 Ry
     Harris-Foulkes estimate   =    -763.61984521 Ry
     estimated scf accuracy    <       0.00000510 Ry

     total magnetization       =     0.00 Bohr mag/cell
     absolute magnetization    =     0.00 Bohr mag/cell

     iteration #  8     ecut=    37.00 Ry     beta= 0.70
     Davidson diagonalization with overlap
     ethr =  2.12E-08,  avg # of iterations =  1.0

     total cpu time spent up to now is      232.4 secs

     total energy              =    -763.61984342 Ry
     Harris-Foulkes estimate   =    -763.61984437 Ry
     estimated scf accuracy    <       0.00000242 Ry

     total magnetization       =     0.00 Bohr mag/cell
     absolute magnetization    =     0.00 Bohr mag/cell

     iteration #  9     ecut=    37.00 Ry     beta= 0.70
     Davidson diagonalization with overlap
     ethr =  1.01E-08,  avg # of iterations =  3.0

     Magnetic moment per site:
     atom:    1    charge:   10.5764    magn:    0.0000    constr:    0.0000
     atom:    2    charge:   10.5764    magn:    0.0000    constr:    0.0000

     total cpu time spent up to now is      248.9 secs

     End of self-consistent calculation

     Number of k-points >= 100: set verbosity='high' to print the bands.

     the Fermi energy is    10.4644 ev

!    total energy              =    -763.61984410 Ry
     Harris-Foulkes estimate   =    -763.61984411 Ry
     estimated scf accuracy    <          5.5E-09 Ry

     total all-electron energy =    -22378.718714 Ry

     The total energy is the sum of the following terms:

     one-electron contribution =     -38.61039852 Ry
     hartree contribution      =      45.17001459 Ry
     xc contribution           =     -45.72190262 Ry
     ewald contribution        =    -153.14240594 Ry
     one-center paw contrib.   =    -571.31495492 Ry
     smearing contrib. (-TS)   =      -0.00019669 Ry

     total magnetization       =    -0.00 Bohr mag/cell
     absolute magnetization    =     0.00 Bohr mag/cell

     convergence has been achieved in   9 iterations

     Forces acting on atoms (cartesian axes, Ry/au):

     atom    1 type  1   force =     0.00000000    0.00000000    0.00000000
     atom    2 type  1   force =    -0.00000000    0.00000000    0.00000000

     Total force =     0.000000     Total SCF correction =     0.000000


     Computing stress (Cartesian axis) and pressure

          total   stress  (Ry/bohr**3)                   (kbar)     P=   -4.90
  -0.00002843  -0.00000000  -0.00000000         -4.18     -0.00     -0.00
  -0.00000000  -0.00002843   0.00000000         -0.00     -4.18      0.00
  -0.00000000   0.00000000  -0.00004312         -0.00      0.00     -6.34


     number of scf cycles    =   2
     number of bfgs steps    =   1

     enthalpy old            =    -763.6198549181 Ry
     enthalpy new            =    -763.6198441018 Ry

     CASE: enthalpy_new > enthalpy_old

     new trust radius        =       0.0004371258 bohr
     new conv_thr            =       0.0000010000 Ry

     new unit-cell volume =    314.26161 a.u.^3 (    46.56877 Ang^3 )
     density =      8.01665 g/cm^3

CELL_PARAMETERS (alat=  5.68401275)
   1.000123299   0.000000000   0.000000000
  -0.500061649   0.866132184   0.000000000
   0.000000000   0.000000000   1.975552084

ATOMIC_POSITIONS (crystal)
Cd       0.666666667   0.333333333   0.750000000
Cd       0.333333333   0.666666667   0.250000000



     Writing output data file pw.save/
     NEW-OLD atomic charge density approx. for the potential
     extrapolated charge   23.97593, renormalised to   24.00000

     total cpu time spent up to now is      270.7 secs

     Self-consistent Calculation

     iteration #  1     ecut=    37.00 Ry     beta= 0.70
     Davidson diagonalization with overlap
     ethr =  1.00E-06,  avg # of iterations =  2.0

     total cpu time spent up to now is      285.3 secs

     total energy              =    -763.61974211 Ry
     Harris-Foulkes estimate   =    -763.64934587 Ry
     estimated scf accuracy    <       0.00007539 Ry

     total magnetization       =    -0.00 Bohr mag/cell
     absolute magnetization    =     0.00 Bohr mag/cell

     iteration #  2     ecut=    37.00 Ry     beta= 0.70
     Davidson diagonalization with overlap
     ethr =  3.14E-07,  avg # of iterations =  3.4

     total cpu time spent up to now is      304.8 secs

     total energy              =    -763.61984607 Ry
     Harris-Foulkes estimate   =    -763.61993033 Ry
     estimated scf accuracy    <       0.00021125 Ry

     total magnetization       =    -0.00 Bohr mag/cell
     absolute magnetization    =     0.00 Bohr mag/cell

     iteration #  3     ecut=    37.00 Ry     beta= 0.70
     Davidson diagonalization with overlap
     ethr =  3.14E-07,  avg # of iterations =  2.2

     total cpu time spent up to now is      319.3 secs

     total energy              =    -763.61985376 Ry
     Harris-Foulkes estimate   =    -763.61986325 Ry
     estimated scf accuracy    <       0.00003241 Ry

     total magnetization       =    -0.00 Bohr mag/cell
     absolute magnetization    =     0.00 Bohr mag/cell

     iteration #  4     ecut=    37.00 Ry     beta= 0.70
     Davidson diagonalization with overlap
     ethr =  1.35E-07,  avg # of iterations =  1.0

     total cpu time spent up to now is      329.8 secs

     total energy              =    -763.61985320 Ry
     Harris-Foulkes estimate   =    -763.61985529 Ry
     estimated scf accuracy    <       0.00001218 Ry

     total magnetization       =    -0.00 Bohr mag/cell
     absolute magnetization    =     0.00 Bohr mag/cell

     iteration #  5     ecut=    37.00 Ry     beta= 0.70
     Davidson diagonalization with overlap
     ethr =  5.07E-08,  avg # of iterations =  2.0

     total cpu time spent up to now is      342.0 secs

     total energy              =    -763.61985356 Ry
     Harris-Foulkes estimate   =    -763.61985429 Ry
     estimated scf accuracy    <       0.00000377 Ry

     total magnetization       =    -0.00 Bohr mag/cell
     absolute magnetization    =     0.00 Bohr mag/cell

     iteration #  6     ecut=    37.00 Ry     beta= 0.70
     Davidson diagonalization with overlap
     ethr =  1.57E-08,  avg # of iterations =  2.9

     total cpu time spent up to now is      355.0 secs

     total energy              =    -763.61985373 Ry
     Harris-Foulkes estimate   =    -763.61985381 Ry
     estimated scf accuracy    <       0.00000189 Ry

     total magnetization       =    -0.00 Bohr mag/cell
     absolute magnetization    =     0.00 Bohr mag/cell

     iteration #  7     ecut=    37.00 Ry     beta= 0.70
     Davidson diagonalization with overlap
     ethr =  7.87E-09,  avg # of iterations =  1.1

     total cpu time spent up to now is      365.2 secs

     total energy              =    -763.61985383 Ry
     Harris-Foulkes estimate   =    -763.61985376 Ry
     estimated scf accuracy    <       0.00000161 Ry

     total magnetization       =    -0.00 Bohr mag/cell
     absolute magnetization    =     0.00 Bohr mag/cell

     iteration #  8     ecut=    37.00 Ry     beta= 0.70
     Davidson diagonalization with overlap
     ethr =  6.70E-09,  avg # of iterations =  1.0

     total cpu time spent up to now is      375.2 secs

     total energy              =    -763.61985340 Ry
     Harris-Foulkes estimate   =    -763.61985384 Ry
     estimated scf accuracy    <       0.00000172 Ry

     total magnetization       =     0.00 Bohr mag/cell
     absolute magnetization    =     0.00 Bohr mag/cell

     iteration #  9     ecut=    37.00 Ry     beta= 0.70
     Davidson diagonalization with overlap
     ethr =  6.70E-09,  avg # of iterations =  1.1

     Magnetic moment per site:
     atom:    1    charge:   10.5751    magn:    0.0000    constr:    0.0000
     atom:    2    charge:   10.5751    magn:    0.0000    constr:    0.0000

     total cpu time spent up to now is      385.3 secs

     End of self-consistent calculation

     Number of k-points >= 100: set verbosity='high' to print the bands.

     the Fermi energy is    10.4795 ev

!    total energy              =    -763.61985291 Ry
     Harris-Foulkes estimate   =    -763.61985347 Ry
     estimated scf accuracy    <       0.00000068 Ry

     total all-electron energy =    -22378.718723 Ry

     The total energy is the sum of the following terms:

     one-electron contribution =     -38.53231010 Ry
     hartree contribution      =      45.13808140 Ry
     xc contribution           =     -45.72116670 Ry
     ewald contribution        =    -153.18998485 Ry
     one-center paw contrib.   =    -571.31427573 Ry
     smearing contrib. (-TS)   =      -0.00019693 Ry

     total magnetization       =     0.00 Bohr mag/cell
     absolute magnetization    =     0.00 Bohr mag/cell

     convergence has been achieved in   9 iterations

     Forces acting on atoms (cartesian axes, Ry/au):

     atom    1 type  1   force =     0.00000000    0.00000000    0.00000000
     atom    2 type  1   force =     0.00000000    0.00000000    0.00000000

     Total force =     0.000000     Total SCF correction =     0.000000


     Computing stress (Cartesian axis) and pressure

          total   stress  (Ry/bohr**3)                   (kbar)     P=  -13.27
  -0.00008392   0.00000000  -0.00000000        -12.34      0.00     -0.00
   0.00000000  -0.00008392  -0.00000000          0.00    -12.34     -0.00
  -0.00000000  -0.00000000  -0.00010274         -0.00     -0.00    -15.11


     number of scf cycles    =   3
     number of bfgs steps    =   1

     enthalpy old            =    -763.6198549181 Ry
     enthalpy new            =    -763.6198529077 Ry

     CASE: enthalpy_new > enthalpy_old

     new trust radius        =       0.0001037285 bohr
     new conv_thr            =       0.0000010000 Ry

     new unit-cell volume =    314.19472 a.u.^3 (    46.55885 Ang^3 )
     density =      8.01836 g/cm^3

CELL_PARAMETERS (alat=  5.68401275)
   1.000029260   0.000000000   0.000000000
  -0.500014630   0.866050744   0.000000000
   0.000000000   0.000000000   1.975503046

ATOMIC_POSITIONS (crystal)
Cd       0.666666667   0.333333333   0.750000000
Cd       0.333333333   0.666666667   0.250000000



     Writing output data file pw.save/
     NEW-OLD atomic charge density approx. for the potential
     extrapolated charge   23.99489, renormalised to   24.00000

     total cpu time spent up to now is      404.7 secs

     Self-consistent Calculation

     iteration #  1     ecut=    37.00 Ry     beta= 0.70
     Davidson diagonalization with overlap
     ethr =  1.00E-06,  avg # of iterations =  2.0

     Threshold (ethr) on eigenvalues was too large:
     Diagonalizing with lowered threshold

     Davidson diagonalization with overlap
     ethr =  3.74E-08,  avg # of iterations =  1.0

     total cpu time spent up to now is      426.1 secs

     total energy              =    -763.61984597 Ry
     Harris-Foulkes estimate   =    -763.62610926 Ry
     estimated scf accuracy    <       0.00000913 Ry

     total magnetization       =     0.00 Bohr mag/cell
     absolute magnetization    =     0.00 Bohr mag/cell

     iteration #  2     ecut=    37.00 Ry     beta= 0.70
     Davidson diagonalization with overlap
     ethr =  3.80E-08,  avg # of iterations =  3.0

     total cpu time spent up to now is      443.2 secs

     total energy              =    -763.61985377 Ry
     Harris-Foulkes estimate   =    -763.61986080 Ry
     estimated scf accuracy    <       0.00001529 Ry

     total magnetization       =     0.00 Bohr mag/cell
     absolute magnetization    =     0.00 Bohr mag/cell

     iteration #  3     ecut=    37.00 Ry     beta= 0.70
     Davidson diagonalization with overlap
     ethr =  3.80E-08,  avg # of iterations =  2.0

     total cpu time spent up to now is      455.5 secs

     total energy              =    -763.61985509 Ry
     Harris-Foulkes estimate   =    -763.61985543 Ry
     estimated scf accuracy    <       0.00000137 Ry

     total magnetization       =     0.00 Bohr mag/cell
     absolute magnetization    =     0.00 Bohr mag/cell

     iteration #  4     ecut=    37.00 Ry     beta= 0.70
     Davidson diagonalization with overlap
     ethr =  5.72E-09,  avg # of iterations =  2.3

     Magnetic moment per site:
     atom:    1    charge:   10.5749    magn:    0.0000    constr:    0.0000
     atom:    2    charge:   10.5749    magn:    0.0000    constr:    0.0000

     total cpu time spent up to now is      466.8 secs

     End of self-consistent calculation

     Number of k-points >= 100: set verbosity='high' to print the bands.

     the Fermi energy is    10.4825 ev

!    total energy              =    -763.61985476 Ry
     Harris-Foulkes estimate   =    -763.61985522 Ry
     estimated scf accuracy    <       0.00000053 Ry

     total all-electron energy =    -22378.718725 Ry

     The total energy is the sum of the following terms:

     one-electron contribution =     -38.51711450 Ry
     hartree contribution      =      45.13339159 Ry
     xc contribution           =     -45.72148576 Ry
     ewald contribution        =    -153.20008727 Ry
     one-center paw contrib.   =    -571.31436179 Ry
     smearing contrib. (-TS)   =      -0.00019703 Ry

     total magnetization       =     0.00 Bohr mag/cell
     absolute magnetization    =     0.00 Bohr mag/cell

     convergence has been achieved in   4 iterations

     Forces acting on atoms (cartesian axes, Ry/au):

     atom    1 type  1   force =     0.00000000    0.00000000    0.00000000
     atom    2 type  1   force =    -0.00000000   -0.00000000    0.00000000

     Total force =     0.000000     Total SCF correction =     0.000000


     Computing stress (Cartesian axis) and pressure

          total   stress  (Ry/bohr**3)                   (kbar)     P=  -12.31
  -0.00007743   0.00000000   0.00000000        -11.39      0.00      0.00
   0.00000000  -0.00007743  -0.00000000          0.00    -11.39     -0.00
   0.00000000  -0.00000000  -0.00009619          0.00     -0.00    -14.15


     number of scf cycles    =   4
     number of bfgs steps    =   1

     enthalpy old            =    -763.6198549181 Ry
     enthalpy new            =    -763.6198547552 Ry

     CASE: enthalpy_new > enthalpy_old

     new trust radius        =       0.0000376406 bohr

     trust_radius < trust_radius_min

     resetting bfgs history

     new conv_thr            =       0.0000010000 Ry

     new unit-cell volume =    314.57688 a.u.^3 (    46.61548 Ang^3 )
     density =      8.00862 g/cm^3

CELL_PARAMETERS (alat=  5.68401275)
   1.000566328   0.000000000  -0.000000000
  -0.500283164   0.866515858   0.000000000
   0.000000000   0.000000000   1.975783095

ATOMIC_POSITIONS (crystal)
Cd       0.666666667   0.333333333   0.750000000
Cd       0.333333333   0.666666667   0.250000000



     Writing output data file pw.save/
     NEW-OLD atomic charge density approx. for the potential
     extrapolated charge   24.02914, renormalised to   24.00000

     total cpu time spent up to now is      486.3 secs

     Self-consistent Calculation

     iteration #  1     ecut=    37.00 Ry     beta= 0.70
     Davidson diagonalization with overlap
     ethr =  1.00E-06,  avg # of iterations =  2.0

     total cpu time spent up to now is      499.5 secs

     total energy              =    -763.61969496 Ry
     Harris-Foulkes estimate   =    -763.58413028 Ry
     estimated scf accuracy    <       0.00009187 Ry

     total magnetization       =    -0.00 Bohr mag/cell
     absolute magnetization    =     0.00 Bohr mag/cell

     iteration #  2     ecut=    37.00 Ry     beta= 0.70
     Davidson diagonalization with overlap
     ethr =  3.83E-07,  avg # of iterations =  3.6

     total cpu time spent up to now is      516.3 secs

     total energy              =    -763.61983736 Ry
     Harris-Foulkes estimate   =    -763.61994841 Ry
     estimated scf accuracy    <       0.00028856 Ry

     total magnetization       =     0.00 Bohr mag/cell
     absolute magnetization    =     0.00 Bohr mag/cell

     iteration #  3     ecut=    37.00 Ry     beta= 0.70
     Davidson diagonalization with overlap
     ethr =  3.83E-07,  avg # of iterations =  2.4

     total cpu time spent up to now is      529.0 secs

     total energy              =    -763.61984388 Ry
     Harris-Foulkes estimate   =    -763.61985906 Ry
     estimated scf accuracy    <       0.00004972 Ry

     total magnetization       =     0.00 Bohr mag/cell
     absolute magnetization    =     0.00 Bohr mag/cell

     iteration #  4     ecut=    37.00 Ry     beta= 0.70
     Davidson diagonalization with overlap
     ethr =  2.07E-07,  avg # of iterations =  1.0

     total cpu time spent up to now is      538.9 secs

     total energy              =    -763.61984322 Ry
     Harris-Foulkes estimate   =    -763.61984641 Ry
     estimated scf accuracy    <       0.00001712 Ry

     total magnetization       =     0.00 Bohr mag/cell
     absolute magnetization    =     0.00 Bohr mag/cell

     iteration #  5     ecut=    37.00 Ry     beta= 0.70
     Davidson diagonalization with overlap
     ethr =  7.13E-08,  avg # of iterations =  2.0

     total cpu time spent up to now is      550.3 secs

     total energy              =    -763.61984442 Ry
     Harris-Foulkes estimate   =    -763.61984505 Ry
     estimated scf accuracy    <       0.00000443 Ry

     total magnetization       =    -0.00 Bohr mag/cell
     absolute magnetization    =     0.00 Bohr mag/cell

     iteration #  6     ecut=    37.00 Ry     beta= 0.70
     Davidson diagonalization with overlap
     ethr =  1.85E-08,  avg # of iterations =  2.9

     total cpu time spent up to now is      562.0 secs

     total energy              =    -763.61984463 Ry
     Harris-Foulkes estimate   =    -763.61984468 Ry
     estimated scf accuracy    <       0.00000264 Ry

     total magnetization       =    -0.00 Bohr mag/cell
     absolute magnetization    =     0.00 Bohr mag/cell

     iteration #  7     ecut=    37.00 Ry     beta= 0.70
     Davidson diagonalization with overlap
     ethr =  1.10E-08,  avg # of iterations =  1.0

     total cpu time spent up to now is      572.0 secs

     total energy              =    -763.61984451 Ry
     Harris-Foulkes estimate   =    -763.61984465 Ry
     estimated scf accuracy    <       0.00000239 Ry

     total magnetization       =    -0.00 Bohr mag/cell
     absolute magnetization    =     0.00 Bohr mag/cell

     iteration #  8     ecut=    37.00 Ry     beta= 0.70
     Davidson diagonalization with overlap
     ethr =  9.96E-09,  avg # of iterations =  1.0

     total cpu time spent up to now is      582.0 secs

     total energy              =    -763.61984390 Ry
     Harris-Foulkes estimate   =    -763.61984453 Ry
     estimated scf accuracy    <       0.00000191 Ry

     total magnetization       =    -0.00 Bohr mag/cell
     absolute magnetization    =     0.00 Bohr mag/cell

     iteration #  9     ecut=    37.00 Ry     beta= 0.70
     Davidson diagonalization with overlap
     ethr =  7.94E-09,  avg # of iterations =  1.5

     Magnetic moment per site:
     atom:    1    charge:   10.5765    magn:    0.0000    constr:    0.0000
     atom:    2    charge:   10.5765    magn:    0.0000    constr:    0.0000

     total cpu time spent up to now is      592.2 secs

     End of self-consistent calculation

     Number of k-points >= 100: set verbosity='high' to print the bands.

     the Fermi energy is    10.4642 ev

!    total energy              =    -763.61984389 Ry
     Harris-Foulkes estimate   =    -763.61984409 Ry
     estimated scf accuracy    <       0.00000029 Ry

     total all-electron energy =    -22378.718714 Ry

     The total energy is the sum of the following terms:

     one-electron contribution =     -38.61329470 Ry
     hartree contribution      =      45.17433220 Ry
     xc contribution           =     -45.72289882 Ry
     ewald contribution        =    -153.14240681 Ry
     one-center paw contrib.   =    -571.31537900 Ry
     smearing contrib. (-TS)   =      -0.00019675 Ry

     total magnetization       =    -0.00 Bohr mag/cell
     absolute magnetization    =     0.00 Bohr mag/cell

     convergence has been achieved in   9 iterations

     Forces acting on atoms (cartesian axes, Ry/au):

     atom    1 type  1   force =    -0.00000000   -0.00000000    0.00000000
     atom    2 type  1   force =     0.00000000    0.00000000   -0.00000000

     Total force =     0.000000     Total SCF correction =     0.000000


     Computing stress (Cartesian axis) and pressure

          total   stress  (Ry/bohr**3)                   (kbar)     P=    0.28
   0.00000634  -0.00000000  -0.00000000          0.93     -0.00     -0.00
  -0.00000000   0.00000634   0.00000000         -0.00      0.93      0.00
  -0.00000000   0.00000000  -0.00000699         -0.00      0.00     -1.03


     number of scf cycles    =   5
     number of bfgs steps    =   1

     enthalpy old            =    -763.6198549181 Ry
     enthalpy new            =    -763.6198438868 Ry

     CASE: enthalpy_new > enthalpy_old

     new trust radius        =       0.0004322691 bohr
     new conv_thr            =       0.0000010000 Ry

     new unit-cell volume =    314.26064 a.u.^3 (    46.56862 Ang^3 )
     density =      8.01668 g/cm^3

CELL_PARAMETERS (alat=  5.68401275)
   1.000121929   0.000000000  -0.000000000
  -0.500060964   0.866130997   0.000000000
   0.000000000   0.000000000   1.975551366

ATOMIC_POSITIONS (crystal)
Cd       0.666666667   0.333333333   0.750000000
Cd       0.333333333   0.666666667   0.250000000



     Writing output data file pw.save/
     NEW-OLD atomic charge density approx. for the potential
     extrapolated charge   23.97586, renormalised to   24.00000

     total cpu time spent up to now is      611.3 secs

     Self-consistent Calculation

     iteration #  1     ecut=    37.00 Ry     beta= 0.70
     Davidson diagonalization with overlap
     ethr =  1.00E-06,  avg # of iterations =  2.0

     total cpu time spent up to now is      624.6 secs

     total energy              =    -763.61975127 Ry
     Harris-Foulkes estimate   =    -763.64943416 Ry
     estimated scf accuracy    <       0.00006365 Ry

     total magnetization       =    -0.00 Bohr mag/cell
     absolute magnetization    =     0.00 Bohr mag/cell

     iteration #  2     ecut=    37.00 Ry     beta= 0.70
     Davidson diagonalization with overlap
     ethr =  2.65E-07,  avg # of iterations =  3.6

     total cpu time spent up to now is      641.3 secs

     total energy              =    -763.61984882 Ry
     Harris-Foulkes estimate   =    -763.61992586 Ry
     estimated scf accuracy    <       0.00019915 Ry

     total magnetization       =    -0.00 Bohr mag/cell
     absolute magnetization    =     0.00 Bohr mag/cell

     iteration #  3     ecut=    37.00 Ry     beta= 0.70
     Davidson diagonalization with overlap
     ethr =  2.65E-07,  avg # of iterations =  2.4

     total cpu time spent up to now is      654.2 secs

     total energy              =    -763.61985343 Ry
     Harris-Foulkes estimate   =    -763.61986391 Ry
     estimated scf accuracy    <       0.00003393 Ry

     total magnetization       =    -0.00 Bohr mag/cell
     absolute magnetization    =     0.00 Bohr mag/cell

     iteration #  4     ecut=    37.00 Ry     beta= 0.70
     Davidson diagonalization with overlap
     ethr =  1.41E-07,  avg # of iterations =  1.0

     total cpu time spent up to now is      664.1 secs

     total energy              =    -763.61985283 Ry
     Harris-Foulkes estimate   =    -763.61985514 Ry
     estimated scf accuracy    <       0.00001175 Ry

     total magnetization       =    -0.00 Bohr mag/cell
     absolute magnetization    =     0.00 Bohr mag/cell

     iteration #  5     ecut=    37.00 Ry     beta= 0.70
     Davidson diagonalization with overlap
     ethr =  4.89E-08,  avg # of iterations =  2.0

     total cpu time spent up to now is      675.6 secs

     total energy              =    -763.61985360 Ry
     Harris-Foulkes estimate   =    -763.61985410 Ry
     estimated scf accuracy    <       0.00000293 Ry

     total magnetization       =    -0.00 Bohr mag/cell
     absolute magnetization    =     0.00 Bohr mag/cell

     iteration #  6     ecut=    37.00 Ry     beta= 0.70
     Davidson diagonalization with overlap
     ethr =  1.22E-08,  avg # of iterations =  2.9

     total cpu time spent up to now is      687.9 secs

     total energy              =    -763.61985374 Ry
     Harris-Foulkes estimate   =    -763.61985379 Ry
     estimated scf accuracy    <       0.00000163 Ry

     total magnetization       =    -0.00 Bohr mag/cell
     absolute magnetization    =     0.00 Bohr mag/cell

     iteration #  7     ecut=    37.00 Ry     beta= 0.70
     Davidson diagonalization with overlap
     ethr =  6.80E-09,  avg # of iterations =  1.0

     total cpu time spent up to now is      698.2 secs

     total energy              =    -763.61985367 Ry
     Harris-Foulkes estimate   =    -763.61985376 Ry
     estimated scf accuracy    <       0.00000144 Ry

     total magnetization       =    -0.00 Bohr mag/cell
     absolute magnetization    =     0.00 Bohr mag/cell

     iteration #  8     ecut=    37.00 Ry     beta= 0.70
     Davidson diagonalization with overlap
     ethr =  5.98E-09,  avg # of iterations =  1.0

     total cpu time spent up to now is      708.2 secs

     total energy              =    -763.61985319 Ry
     Harris-Foulkes estimate   =    -763.61985368 Ry
     estimated scf accuracy    <       0.00000116 Ry

     total magnetization       =     0.00 Bohr mag/cell
     absolute magnetization    =     0.00 Bohr mag/cell

     iteration #  9     ecut=    37.00 Ry     beta= 0.70
     Davidson diagonalization with overlap
     ethr =  4.83E-09,  avg # of iterations =  1.9

     Magnetic moment per site:
     atom:    1    charge:   10.5752    magn:    0.0000    constr:    0.0000
     atom:    2    charge:   10.5752    magn:    0.0000    constr:    0.0000

     total cpu time spent up to now is      719.0 secs

     End of self-consistent calculation

     Number of k-points >= 100: set verbosity='high' to print the bands.

     the Fermi energy is    10.4793 ev

!    total energy              =    -763.61985322 Ry
     Harris-Foulkes estimate   =    -763.61985332 Ry
     estimated scf accuracy    <       0.00000012 Ry

     total all-electron energy =    -22378.718723 Ry

     The total energy is the sum of the following terms:

     one-electron contribution =     -38.53417789 Ry
     hartree contribution      =      45.14125750 Ry
     xc contribution           =     -45.72192132 Ry
     ewald contribution        =    -153.19013210 Ry
     one-center paw contrib.   =    -571.31468241 Ry
     smearing contrib. (-TS)   =      -0.00019700 Ry

     total magnetization       =     0.00 Bohr mag/cell
     absolute magnetization    =     0.00 Bohr mag/cell

     convergence has been achieved in   9 iterations

     Forces acting on atoms (cartesian axes, Ry/au):

     atom    1 type  1   force =     0.00000000    0.00000000    0.00000000
     atom    2 type  1   force =     0.00000000    0.00000000    0.00000000

     Total force =     0.000000     Total SCF correction =     0.000000


     Computing stress (Cartesian axis) and pressure

          total   stress  (Ry/bohr**3)                   (kbar)     P=   -8.02
  -0.00004835   0.00000000  -0.00000000         -7.11      0.00     -0.00
   0.00000000  -0.00004835   0.00000000          0.00     -7.11      0.00
  -0.00000000   0.00000000  -0.00006676         -0.00      0.00     -9.82


     number of scf cycles    =   6
     number of bfgs steps    =   1

     enthalpy old            =    -763.6198549181 Ry
     enthalpy new            =    -763.6198532173 Ry

     CASE: enthalpy_new > enthalpy_old

     new trust radius        =       0.0001110044 bohr
     new conv_thr            =       0.0000010000 Ry

     new unit-cell volume =    314.19618 a.u.^3 (    46.55907 Ang^3 )
     density =      8.01832 g/cm^3

CELL_PARAMETERS (alat=  5.68401275)
   1.000031313   0.000000000  -0.000000000
  -0.500015656   0.866052521   0.000000000
   0.000000000   0.000000000   1.975504115

ATOMIC_POSITIONS (crystal)
Cd       0.666666667   0.333333333   0.750000000
Cd       0.333333333   0.666666667   0.250000000



     Writing output data file pw.save/
     NEW-OLD atomic charge density approx. for the potential
     extrapolated charge   23.99508, renormalised to   24.00000

     total cpu time spent up to now is      738.4 secs

     Self-consistent Calculation

     iteration #  1     ecut=    37.00 Ry     beta= 0.70
     Davidson diagonalization with overlap
     ethr =  1.00E-06,  avg # of iterations =  2.0

     Threshold (ethr) on eigenvalues was too large:
     Diagonalizing with lowered threshold

     Davidson diagonalization with overlap
     ethr =  2.20E-08,  avg # of iterations =  1.2

     total cpu time spent up to now is      759.9 secs

     total energy              =    -763.61984865 Ry
     Harris-Foulkes estimate   =    -763.62588084 Ry
     estimated scf accuracy    <       0.00000549 Ry

     total magnetization       =    -0.00 Bohr mag/cell
     absolute magnetization    =     0.00 Bohr mag/cell

     iteration #  2     ecut=    37.00 Ry     beta= 0.70
     Davidson diagonalization with overlap
     ethr =  2.29E-08,  avg # of iterations =  3.0

     total cpu time spent up to now is      776.0 secs

     total energy              =    -763.61985433 Ry
     Harris-Foulkes estimate   =    -763.61985932 Ry
     estimated scf accuracy    <       0.00001143 Ry

     total magnetization       =     0.00 Bohr mag/cell
     absolute magnetization    =     0.00 Bohr mag/cell

     iteration #  3     ecut=    37.00 Ry     beta= 0.70
     Davidson diagonalization with overlap
     ethr =  2.29E-08,  avg # of iterations =  2.1

     total cpu time spent up to now is      788.6 secs

     total energy              =    -763.61985509 Ry
     Harris-Foulkes estimate   =    -763.61985545 Ry
     estimated scf accuracy    <       0.00000128 Ry

     total magnetization       =     0.00 Bohr mag/cell
     absolute magnetization    =     0.00 Bohr mag/cell

     iteration #  4     ecut=    37.00 Ry     beta= 0.70
     Davidson diagonalization with overlap
     ethr =  5.32E-09,  avg # of iterations =  1.4

     Magnetic moment per site:
     atom:    1    charge:   10.5749    magn:    0.0000    constr:    0.0000
     atom:    2    charge:   10.5749    magn:    0.0000    constr:    0.0000

     total cpu time spent up to now is      798.8 secs

     End of self-consistent calculation

     Number of k-points >= 100: set verbosity='high' to print the bands.

     the Fermi energy is    10.4824 ev

!    total energy              =    -763.61985471 Ry
     Harris-Foulkes estimate   =    -763.61985515 Ry
     estimated scf accuracy    <       0.00000051 Ry

     total all-electron energy =    -22378.718725 Ry

     The total energy is the sum of the following terms:

     one-electron contribution =     -38.51741056 Ry
     hartree contribution      =      45.13338371 Ry
     xc contribution           =     -45.72146600 Ry
     ewald contribution        =    -153.19986679 Ry
     one-center paw contrib.   =    -571.31429804 Ry
     smearing contrib. (-TS)   =      -0.00019703 Ry

     total magnetization       =     0.00 Bohr mag/cell
     absolute magnetization    =     0.00 Bohr mag/cell

     convergence has been achieved in   4 iterations

     Forces acting on atoms (cartesian axes, Ry/au):

     atom    1 type  1   force =     0.00000000    0.00000000    0.00000000
     atom    2 type  1   force =     0.00000000    0.00000000    0.00000000

     Total force =     0.000000     Total SCF correction =     0.000000


     Computing stress (Cartesian axis) and pressure

          total   stress  (Ry/bohr**3)                   (kbar)     P=  -12.15
  -0.00007628  -0.00000000   0.00000000        -11.22     -0.00      0.00
  -0.00000000  -0.00007628   0.00000000         -0.00    -11.22      0.00
   0.00000000  -0.00000000  -0.00009521          0.00     -0.00    -14.01


     number of scf cycles    =   7
     number of bfgs steps    =   1

     enthalpy old            =    -763.6198549181 Ry
     enthalpy new            =    -763.6198547109 Ry

     CASE: enthalpy_new > enthalpy_old

     new trust radius        =       0.0000382970 bohr

     trust_radius < trust_radius_min

     resetting bfgs history

     new conv_thr            =       0.0000010000 Ry

     new unit-cell volume =    314.57687 a.u.^3 (    46.61548 Ang^3 )
     density =      8.00862 g/cm^3

CELL_PARAMETERS (alat=  5.68401275)
   1.000566328   0.000000000  -0.000000000
  -0.500283164   0.866515858   0.000000000
  -0.000000000   0.000000000   1.975783094

ATOMIC_POSITIONS (crystal)
Cd       0.666666667   0.333333333   0.750000000
Cd       0.333333333   0.666666667   0.250000000



     Writing output data file pw.save/
     NEW-OLD atomic charge density approx. for the potential
     extrapolated charge   24.02903, renormalised to   24.00000

     total cpu time spent up to now is      817.8 secs

     Self-consistent Calculation

     iteration #  1     ecut=    37.00 Ry     beta= 0.70
     Davidson diagonalization with overlap
     ethr =  1.00E-06,  avg # of iterations =  2.0

     total cpu time spent up to now is      831.1 secs

     total energy              =    -763.61969630 Ry
     Harris-Foulkes estimate   =    -763.58426603 Ry
     estimated scf accuracy    <       0.00009072 Ry

     total magnetization       =    -0.00 Bohr mag/cell
     absolute magnetization    =     0.00 Bohr mag/cell

     iteration #  2     ecut=    37.00 Ry     beta= 0.70
     Davidson diagonalization with overlap
     ethr =  3.78E-07,  avg # of iterations =  3.6

     total cpu time spent up to now is      847.9 secs

     total energy              =    -763.61983752 Ry
     Harris-Foulkes estimate   =    -763.61994745 Ry
     estimated scf accuracy    <       0.00028607 Ry

     total magnetization       =    -0.00 Bohr mag/cell
     absolute magnetization    =     0.00 Bohr mag/cell

     iteration #  3     ecut=    37.00 Ry     beta= 0.70
     Davidson diagonalization with overlap
     ethr =  3.78E-07,  avg # of iterations =  2.4

     total cpu time spent up to now is      860.7 secs

     total energy              =    -763.61984407 Ry
     Harris-Foulkes estimate   =    -763.61985897 Ry
     estimated scf accuracy    <       0.00004947 Ry

     total magnetization       =    -0.00 Bohr mag/cell
     absolute magnetization    =     0.00 Bohr mag/cell

     iteration #  4     ecut=    37.00 Ry     beta= 0.70
     Davidson diagonalization with overlap
     ethr =  2.06E-07,  avg # of iterations =  1.0

     total cpu time spent up to now is      870.6 secs

     total energy              =    -763.61984334 Ry
     Harris-Foulkes estimate   =    -763.61984652 Ry
     estimated scf accuracy    <       0.00001737 Ry

     total magnetization       =    -0.00 Bohr mag/cell
     absolute magnetization    =     0.00 Bohr mag/cell

     iteration #  5     ecut=    37.00 Ry     beta= 0.70
     Davidson diagonalization with overlap
     ethr =  7.24E-08,  avg # of iterations =  2.0

     total cpu time spent up to now is      882.0 secs

     total energy              =    -763.61984442 Ry
     Harris-Foulkes estimate   =    -763.61984511 Ry
     estimated scf accuracy    <       0.00000466 Ry

     total magnetization       =    -0.00 Bohr mag/cell
     absolute magnetization    =     0.00 Bohr mag/cell

     iteration #  6     ecut=    37.00 Ry     beta= 0.70
     Davidson diagonalization with overlap
     ethr =  1.94E-08,  avg # of iterations =  2.9

     total cpu time spent up to now is      893.6 secs

     total energy              =    -763.61984464 Ry
     Harris-Foulkes estimate   =    -763.61984468 Ry
     estimated scf accuracy    <       0.00000271 Ry

     total magnetization       =     0.00 Bohr mag/cell
     absolute magnetization    =     0.00 Bohr mag/cell

     iteration #  7     ecut=    37.00 Ry     beta= 0.70
     Davidson diagonalization with overlap
     ethr =  1.13E-08,  avg # of iterations =  1.0

     total cpu time spent up to now is      903.6 secs

     total energy              =    -763.61984449 Ry
     Harris-Foulkes estimate   =    -763.61984467 Ry
     estimated scf accuracy    <       0.00000248 Ry

     total magnetization       =    -0.00 Bohr mag/cell
     absolute magnetization    =     0.00 Bohr mag/cell

     iteration #  8     ecut=    37.00 Ry     beta= 0.70
     Davidson diagonalization with overlap
     ethr =  1.03E-08,  avg # of iterations =  1.0

     total cpu time spent up to now is      913.6 secs

     total energy              =    -763.61984391 Ry
     Harris-Foulkes estimate   =    -763.61984452 Ry
     estimated scf accuracy    <       0.00000193 Ry

     total magnetization       =    -0.00 Bohr mag/cell
     absolute magnetization    =     0.00 Bohr mag/cell

     iteration #  9     ecut=    37.00 Ry     beta= 0.70
     Davidson diagonalization with overlap
     ethr =  8.05E-09,  avg # of iterations =  1.4

     Magnetic moment per site:
     atom:    1    charge:   10.5765    magn:    0.0000    constr:    0.0000
     atom:    2    charge:   10.5765    magn:    0.0000    constr:    0.0000

     total cpu time spent up to now is      923.8 secs

     End of self-consistent calculation

     Number of k-points >= 100: set verbosity='high' to print the bands.

     the Fermi energy is    10.4642 ev

!    total energy              =    -763.61984387 Ry
     Harris-Foulkes estimate   =    -763.61984409 Ry
     estimated scf accuracy    <       0.00000032 Ry

     total all-electron energy =    -22378.718714 Ry

     The total energy is the sum of the following terms:

     one-electron contribution =     -38.61344798 Ry
     hartree contribution      =      45.17455827 Ry
     xc contribution           =     -45.72295061 Ry
     ewald contribution        =    -153.14240687 Ry
     one-center paw contrib.   =    -571.31539993 Ry
     smearing contrib. (-TS)   =      -0.00019675 Ry

     total magnetization       =    -0.00 Bohr mag/cell
     absolute magnetization    =     0.00 Bohr mag/cell

     convergence has been achieved in   9 iterations

     Forces acting on atoms (cartesian axes, Ry/au):

     atom    1 type  1   force =     0.00000000    0.00000000    0.00000000
     atom    2 type  1   force =     0.00000000    0.00000000    0.00000000

     Total force =     0.000000     Total SCF correction =     0.000000


     Computing stress (Cartesian axis) and pressure

          total   stress  (Ry/bohr**3)                   (kbar)     P=    0.61
   0.00000857  -0.00000000   0.00000000          1.26     -0.00      0.00
  -0.00000000   0.00000857   0.00000000         -0.00      1.26      0.00
   0.00000000   0.00000000  -0.00000479          0.00      0.00     -0.70


     number of scf cycles    =   8
     number of bfgs steps    =   1

     enthalpy old            =    -763.6198549181 Ry
     enthalpy new            =    -763.6198438665 Ry

     CASE: enthalpy_new > enthalpy_old

     new trust radius        =       0.0004318144 bohr
     new conv_thr            =       0.0000010000 Ry

     new unit-cell volume =    314.26055 a.u.^3 (    46.56861 Ang^3 )
     density =      8.01668 g/cm^3

CELL_PARAMETERS (alat=  5.68401275)
   1.000121801   0.000000000  -0.000000000
  -0.500060900   0.866130886   0.000000000
  -0.000000000   0.000000000   1.975551299

ATOMIC_POSITIONS (crystal)
Cd       0.666666667   0.333333333   0.750000000
Cd       0.333333333   0.666666667   0.250000000



     Writing output data file pw.save/
     NEW-OLD atomic charge density approx. for the potential
     extrapolated charge   23.97585, renormalised to   24.00000

     total cpu time spent up to now is      943.1 secs

     Self-consistent Calculation

     iteration #  1     ecut=    37.00 Ry     beta= 0.70
     Davidson diagonalization with overlap
     ethr =  1.00E-06,  avg # of iterations =  2.0

     total cpu time spent up to now is      956.4 secs

     total energy              =    -763.61975177 Ry
     Harris-Foulkes estimate   =    -763.64944258 Ry
     estimated scf accuracy    <       0.00006305 Ry

     total magnetization       =    -0.00 Bohr mag/cell
     absolute magnetization    =     0.00 Bohr mag/cell

     iteration #  2     ecut=    37.00 Ry     beta= 0.70
     Davidson diagonalization with overlap
     ethr =  2.63E-07,  avg # of iterations =  3.6

     total cpu time spent up to now is      973.1 secs

     total energy              =    -763.61984897 Ry
     Harris-Foulkes estimate   =    -763.61992561 Ry
     estimated scf accuracy    <       0.00019849 Ry

     total magnetization       =     0.00 Bohr mag/cell
     absolute magnetization    =     0.00 Bohr mag/cell

     iteration #  3     ecut=    37.00 Ry     beta= 0.70
     Davidson diagonalization with overlap
     ethr =  2.63E-07,  avg # of iterations =  2.4

     total cpu time spent up to now is      985.9 secs

     total energy              =    -763.61985340 Ry
     Harris-Foulkes estimate   =    -763.61986395 Ry
     estimated scf accuracy    <       0.00003401 Ry

     total magnetization       =     0.00 Bohr mag/cell
     absolute magnetization    =     0.00 Bohr mag/cell

     iteration #  4     ecut=    37.00 Ry     beta= 0.70
     Davidson diagonalization with overlap
     ethr =  1.42E-07,  avg # of iterations =  1.0

     total cpu time spent up to now is      995.8 secs

     total energy              =    -763.61985280 Ry
     Harris-Foulkes estimate   =    -763.61985512 Ry
     estimated scf accuracy    <       0.00001171 Ry

     total magnetization       =     0.00 Bohr mag/cell
     absolute magnetization    =     0.00 Bohr mag/cell

     iteration #  5     ecut=    37.00 Ry     beta= 0.70
     Davidson diagonalization with overlap
     ethr =  4.88E-08,  avg # of iterations =  2.0

     total cpu time spent up to now is     1007.4 secs

     total energy              =    -763.61985361 Ry
     Harris-Foulkes estimate   =    -763.61985409 Ry
     estimated scf accuracy    <       0.00000288 Ry

     total magnetization       =     0.00 Bohr mag/cell
     absolute magnetization    =     0.00 Bohr mag/cell

     iteration #  6     ecut=    37.00 Ry     beta= 0.70
     Davidson diagonalization with overlap
     ethr =  1.20E-08,  avg # of iterations =  2.9

     total cpu time spent up to now is     1019.1 secs

     total energy              =    -763.61985374 Ry
     Harris-Foulkes estimate   =    -763.61985379 Ry
     estimated scf accuracy    <       0.00000163 Ry

     total magnetization       =     0.00 Bohr mag/cell
     absolute magnetization    =     0.00 Bohr mag/cell

     iteration #  7     ecut=    37.00 Ry     beta= 0.70
     Davidson diagonalization with overlap
     ethr =  6.80E-09,  avg # of iterations =  1.0

     total cpu time spent up to now is     1029.1 secs

     total energy              =    -763.61985365 Ry
     Harris-Foulkes estimate   =    -763.61985376 Ry
     estimated scf accuracy    <       0.00000142 Ry

     total magnetization       =     0.00 Bohr mag/cell
     absolute magnetization    =     0.00 Bohr mag/cell

     iteration #  8     ecut=    37.00 Ry     beta= 0.70
     Davidson diagonalization with overlap
     ethr =  5.92E-09,  avg # of iterations =  1.0

     total cpu time spent up to now is     1039.4 secs

     total energy              =    -763.61985318 Ry
     Harris-Foulkes estimate   =    -763.61985366 Ry
     estimated scf accuracy    <       0.00000111 Ry

     total magnetization       =     0.00 Bohr mag/cell
     absolute magnetization    =     0.00 Bohr mag/cell

     iteration #  9     ecut=    37.00 Ry     beta= 0.70
     Davidson diagonalization with overlap
     ethr =  4.63E-09,  avg # of iterations =  2.0

     Magnetic moment per site:
     atom:    1    charge:   10.5752    magn:    0.0000    constr:    0.0000
     atom:    2    charge:   10.5752    magn:    0.0000    constr:    0.0000

     total cpu time spent up to now is     1050.6 secs

     End of self-consistent calculation

     Number of k-points >= 100: set verbosity='high' to print the bands.

     the Fermi energy is    10.4793 ev

!    total energy              =    -763.61985325 Ry
     Harris-Foulkes estimate   =    -763.61985332 Ry
     estimated scf accuracy    <       0.00000009 Ry

     total all-electron energy =    -22378.718723 Ry

     The total energy is the sum of the following terms:

     one-electron contribution =     -38.53449293 Ry
     hartree contribution      =      45.14174825 Ry
     xc contribution           =     -45.72203740 Ry
     ewald contribution        =    -153.19014588 Ry
     one-center paw contrib.   =    -571.31472829 Ry
     smearing contrib. (-TS)   =      -0.00019700 Ry

     total magnetization       =     0.00 Bohr mag/cell
     absolute magnetization    =     0.00 Bohr mag/cell

     convergence has been achieved in   9 iterations

     Forces acting on atoms (cartesian axes, Ry/au):

     atom    1 type  1   force =     0.00000000    0.00000000   -0.00000000
     atom    2 type  1   force =    -0.00000000   -0.00000000    0.00000000

     Total force =     0.000000     Total SCF correction =     0.000000


     Computing stress (Cartesian axis) and pressure

          total   stress  (Ry/bohr**3)                   (kbar)     P=   -7.44
  -0.00004447  -0.00000000   0.00000000         -6.54     -0.00      0.00
  -0.00000000  -0.00004447   0.00000000         -0.00     -6.54      0.00
  -0.00000000   0.00000000  -0.00006279         -0.00      0.00     -9.24


     number of scf cycles    =   9
     number of bfgs steps    =   1

     enthalpy old            =    -763.6198549181 Ry
     enthalpy new            =    -763.6198532489 Ry

     CASE: enthalpy_new > enthalpy_old

     new trust radius        =       0.0001118402 bohr
     new conv_thr            =       0.0000010000 Ry

     new unit-cell volume =    314.19635 a.u.^3 (    46.55909 Ang^3 )
     density =      8.01832 g/cm^3

CELL_PARAMETERS (alat=  5.68401275)
   1.000031548   0.000000000  -0.000000000
  -0.500015774   0.866052725   0.000000000
  -0.000000000   0.000000000   1.975504238

ATOMIC_POSITIONS (crystal)
Cd       0.666666667   0.333333333   0.750000000
Cd       0.333333333   0.666666667   0.250000000



     Writing output data file pw.save/
     NEW-OLD atomic charge density approx. for the potential
     extrapolated charge   23.99510, renormalised to   24.00000

     total cpu time spent up to now is     1070.0 secs

     Self-consistent Calculation

     iteration #  1     ecut=    37.00 Ry     beta= 0.70
     Davidson diagonalization with overlap
     ethr =  1.00E-06,  avg # of iterations =  2.0

     Threshold (ethr) on eigenvalues was too large:
     Diagonalizing with lowered threshold

     Davidson diagonalization with overlap
     ethr =  2.02E-08,  avg # of iterations =  1.2

     total cpu time spent up to now is     1091.3 secs

     total energy              =    -763.61984898 Ry
     Harris-Foulkes estimate   =    -763.62585653 Ry
     estimated scf accuracy    <       0.00000507 Ry

     total magnetization       =     0.00 Bohr mag/cell
     absolute magnetization    =     0.00 Bohr mag/cell

     iteration #  2     ecut=    37.00 Ry     beta= 0.70
     Davidson diagonalization with overlap
     ethr =  2.11E-08,  avg # of iterations =  3.0

     total cpu time spent up to now is     1107.3 secs

     total energy              =    -763.61985441 Ry
     Harris-Foulkes estimate   =    -763.61985914 Ry
     estimated scf accuracy    <       0.00001097 Ry

     total magnetization       =     0.00 Bohr mag/cell
     absolute magnetization    =     0.00 Bohr mag/cell

     iteration #  3     ecut=    37.00 Ry     beta= 0.70
     Davidson diagonalization with overlap
     ethr =  2.11E-08,  avg # of iterations =  2.1

     total cpu time spent up to now is     1119.8 secs

     total energy              =    -763.61985508 Ry
     Harris-Foulkes estimate   =    -763.61985545 Ry
     estimated scf accuracy    <       0.00000128 Ry

     total magnetization       =     0.00 Bohr mag/cell
     absolute magnetization    =     0.00 Bohr mag/cell

     iteration #  4     ecut=    37.00 Ry     beta= 0.70
     Davidson diagonalization with overlap
     ethr =  5.35E-09,  avg # of iterations =  1.2

     Magnetic moment per site:
     atom:    1    charge:   10.5749    magn:    0.0000    constr:    0.0000
     atom:    2    charge:   10.5749    magn:    0.0000    constr:    0.0000

     total cpu time spent up to now is     1129.8 secs

     End of self-consistent calculation

     Number of k-points >= 100: set verbosity='high' to print the bands.

     the Fermi energy is    10.4824 ev

!    total energy              =    -763.61985471 Ry
     Harris-Foulkes estimate   =    -763.61985514 Ry
     estimated scf accuracy    <       0.00000051 Ry

     total all-electron energy =    -22378.718725 Ry

     The total energy is the sum of the following terms:

     one-electron contribution =     -38.51744066 Ry
     hartree contribution      =      45.13337079 Ry
     xc contribution           =     -45.72146183 Ry
     ewald contribution        =    -153.19984146 Ry
     one-center paw contrib.   =    -571.31428450 Ry
     smearing contrib. (-TS)   =      -0.00019703 Ry

     total magnetization       =     0.00 Bohr mag/cell
     absolute magnetization    =     0.00 Bohr mag/cell

     convergence has been achieved in   4 iterations

     Forces acting on atoms (cartesian axes, Ry/au):

     atom    1 type  1   force =     0.00000000    0.00000000    0.00000000
     atom    2 type  1   force =     0.00000000    0.00000000    0.00000000

     Total force =     0.000000     Total SCF correction =     0.000000


     Computing stress (Cartesian axis) and pressure

          total   stress  (Ry/bohr**3)                   (kbar)     P=  -12.13
  -0.00007613  -0.00000000  -0.00000000        -11.20     -0.00     -0.00
  -0.00000000  -0.00007613   0.00000000         -0.00    -11.20      0.00
  -0.00000000   0.00000000  -0.00009517         -0.00      0.00    -14.00


     number of scf cycles    =  10
     number of bfgs steps    =   1

     enthalpy old            =    -763.6198549181 Ry
     enthalpy new            =    -763.6198547052 Ry

     CASE: enthalpy_new > enthalpy_old

     new trust radius        =       0.0000383514 bohr

     trust_radius < trust_radius_min

     resetting bfgs history

     new conv_thr            =       0.0000010000 Ry

     new unit-cell volume =    314.57687 a.u.^3 (    46.61548 Ang^3 )
     density =      8.00862 g/cm^3

CELL_PARAMETERS (alat=  5.68401275)
   1.000566328   0.000000000  -0.000000000
  -0.500283164   0.866515858   0.000000000
  -0.000000000   0.000000000   1.975783094

ATOMIC_POSITIONS (crystal)
Cd       0.666666667   0.333333333   0.750000000
Cd       0.333333333   0.666666667   0.250000000



     Writing output data file pw.save/
     NEW-OLD atomic charge density approx. for the potential
     extrapolated charge   24.02902, renormalised to   24.00000

     total cpu time spent up to now is     1149.2 secs

     Self-consistent Calculation

     iteration #  1     ecut=    37.00 Ry     beta= 0.70
     Davidson diagonalization with overlap
     ethr =  1.00E-06,  avg # of iterations =  2.0

     total cpu time spent up to now is     1162.5 secs

     total energy              =    -763.61969639 Ry
     Harris-Foulkes estimate   =    -763.58428160 Ry
     estimated scf accuracy    <       0.00009062 Ry

     total magnetization       =    -0.00 Bohr mag/cell
     absolute magnetization    =     0.00 Bohr mag/cell

     iteration #  2     ecut=    37.00 Ry     beta= 0.70
     Davidson diagonalization with overlap
     ethr =  3.78E-07,  avg # of iterations =  3.6

     total cpu time spent up to now is     1179.2 secs

     total energy              =    -763.61983754 Ry
     Harris-Foulkes estimate   =    -763.61994739 Ry
     estimated scf accuracy    <       0.00028593 Ry

     total magnetization       =     0.00 Bohr mag/cell
     absolute magnetization    =     0.00 Bohr mag/cell

     iteration #  3     ecut=    37.00 Ry     beta= 0.70
     Davidson diagonalization with overlap
     ethr =  3.78E-07,  avg # of iterations =  2.4

     total cpu time spent up to now is     1192.0 secs

     total energy              =    -763.61984412 Ry
     Harris-Foulkes estimate   =    -763.61985897 Ry
     estimated scf accuracy    <       0.00004949 Ry

     total magnetization       =     0.00 Bohr mag/cell
     absolute magnetization    =     0.00 Bohr mag/cell

     iteration #  4     ecut=    37.00 Ry     beta= 0.70
     Davidson diagonalization with overlap
     ethr =  2.06E-07,  avg # of iterations =  1.0

     total cpu time spent up to now is     1202.0 secs

     total energy              =    -763.61984336 Ry
     Harris-Foulkes estimate   =    -763.61984655 Ry
     estimated scf accuracy    <       0.00001745 Ry

     total magnetization       =     0.00 Bohr mag/cell
     absolute magnetization    =     0.00 Bohr mag/cell

     iteration #  5     ecut=    37.00 Ry     beta= 0.70
     Davidson diagonalization with overlap
     ethr =  7.27E-08,  avg # of iterations =  2.0

     total cpu time spent up to now is     1213.2 secs

     total energy              =    -763.61984442 Ry
     Harris-Foulkes estimate   =    -763.61984513 Ry
     estimated scf accuracy    <       0.00000472 Ry

     total magnetization       =     0.00 Bohr mag/cell
     absolute magnetization    =     0.00 Bohr mag/cell

     iteration #  6     ecut=    37.00 Ry     beta= 0.70
     Davidson diagonalization with overlap
     ethr =  1.97E-08,  avg # of iterations =  2.9

     total cpu time spent up to now is     1224.9 secs

     total energy              =    -763.61984464 Ry
     Harris-Foulkes estimate   =    -763.61984468 Ry
     estimated scf accuracy    <       0.00000273 Ry

     total magnetization       =     0.00 Bohr mag/cell
     absolute magnetization    =     0.00 Bohr mag/cell

     iteration #  7     ecut=    37.00 Ry     beta= 0.70
     Davidson diagonalization with overlap
     ethr =  1.14E-08,  avg # of iterations =  1.0

     total cpu time spent up to now is     1234.9 secs

     total energy              =    -763.61984450 Ry
     Harris-Foulkes estimate   =    -763.61984467 Ry
     estimated scf accuracy    <       0.00000250 Ry

     total magnetization       =     0.00 Bohr mag/cell
     absolute magnetization    =     0.00 Bohr mag/cell

     iteration #  8     ecut=    37.00 Ry     beta= 0.70
     Davidson diagonalization with overlap
     ethr =  1.04E-08,  avg # of iterations =  1.0

     total cpu time spent up to now is     1244.9 secs

     total energy              =    -763.61984392 Ry
     Harris-Foulkes estimate   =    -763.61984453 Ry
     estimated scf accuracy    <       0.00000197 Ry

     total magnetization       =    -0.00 Bohr mag/cell
     absolute magnetization    =     0.00 Bohr mag/cell

     iteration #  9     ecut=    37.00 Ry     beta= 0.70
     Davidson diagonalization with overlap
     ethr =  8.21E-09,  avg # of iterations =  1.3

     Magnetic moment per site:
     atom:    1    charge:   10.5765    magn:    0.0000    constr:    0.0000
     atom:    2    charge:   10.5765    magn:    0.0000    constr:    0.0000

     total cpu time spent up to now is     1255.1 secs

     End of self-consistent calculation

     Number of k-points >= 100: set verbosity='high' to print the bands.

     the Fermi energy is    10.4641 ev

!    total energy              =    -763.61984385 Ry
     Harris-Foulkes estimate   =    -763.61984409 Ry
     estimated scf accuracy    <       0.00000034 Ry

     total all-electron energy =    -22378.718714 Ry

     The total energy is the sum of the following terms:

     one-electron contribution =     -38.61354826 Ry
     hartree contribution      =      45.17471195 Ry
     xc contribution           =     -45.72298587 Ry
     ewald contribution        =    -153.14240688 Ry
     one-center paw contrib.   =    -571.31541804 Ry
     smearing contrib. (-TS)   =      -0.00019675 Ry

     total magnetization       =    -0.00 Bohr mag/cell
     absolute magnetization    =     0.00 Bohr mag/cell

     convergence has been achieved in   9 iterations

     Forces acting on atoms (cartesian axes, Ry/au):

     atom    1 type  1   force =     0.00000000    0.00000000    0.00000000
     atom    2 type  1   force =     0.00000000    0.00000000    0.00000000

     Total force =     0.000000     Total SCF correction =     0.000000


     Computing stress (Cartesian axis) and pressure

          total   stress  (Ry/bohr**3)                   (kbar)     P=    0.84
   0.00001018  -0.00000000   0.00000000          1.50     -0.00      0.00
  -0.00000000   0.00001018  -0.00000000         -0.00      1.50     -0.00
  -0.00000000   0.00000000  -0.00000318         -0.00      0.00     -0.47


     number of scf cycles    =  11
     number of bfgs steps    =   1

     enthalpy old            =    -763.6198549181 Ry
     enthalpy new            =    -763.6198438532 Ry

     CASE: enthalpy_new > enthalpy_old

     new trust radius        =       0.0004315199 bohr
     new conv_thr            =       0.0000010000 Ry

     new unit-cell volume =    314.26049 a.u.^3 (    46.56860 Ang^3 )
     density =      8.01668 g/cm^3

CELL_PARAMETERS (alat=  5.68401275)
   1.000121718   0.000000000  -0.000000000
  -0.500060859   0.866130814   0.000000000
  -0.000000000   0.000000000   1.975551256

ATOMIC_POSITIONS (crystal)
Cd       0.666666667   0.333333333   0.750000000
Cd       0.333333333   0.666666667   0.250000000



     Writing output data file pw.save/
     NEW-OLD atomic charge density approx. for the potential
     extrapolated charge   23.97585, renormalised to   24.00000

     total cpu time spent up to now is     1274.4 secs

     Self-consistent Calculation

     iteration #  1     ecut=    37.00 Ry     beta= 0.70
     Davidson diagonalization with overlap
     ethr =  1.00E-06,  avg # of iterations =  2.0

     total cpu time spent up to now is     1288.1 secs

     total energy              =    -763.61975209 Ry
     Harris-Foulkes estimate   =    -763.64944804 Ry
     estimated scf accuracy    <       0.00006264 Ry

     total magnetization       =    -0.00 Bohr mag/cell
     absolute magnetization    =     0.00 Bohr mag/cell

     iteration #  2     ecut=    37.00 Ry     beta= 0.70
     Davidson diagonalization with overlap
     ethr =  2.61E-07,  avg # of iterations =  3.6

     total cpu time spent up to now is     1304.8 secs

     total energy              =    -763.61984907 Ry
     Harris-Foulkes estimate   =    -763.61992546 Ry
     estimated scf accuracy    <       0.00019806 Ry

     total magnetization       =    -0.00 Bohr mag/cell
     absolute magnetization    =     0.00 Bohr mag/cell

     iteration #  3     ecut=    37.00 Ry     beta= 0.70
     Davidson diagonalization with overlap
     ethr =  2.61E-07,  avg # of iterations =  2.4

     total cpu time spent up to now is     1317.6 secs

[...]
     ethr =  1.42E-07,  avg # of iterations =  1.0

     total cpu time spent up to now is     5377.6 secs

     total energy              =    -763.61985280 Ry
     Harris-Foulkes estimate   =    -763.61985512 Ry
     estimated scf accuracy    <       0.00001170 Ry

     total magnetization       =     0.00 Bohr mag/cell
     absolute magnetization    =     0.00 Bohr mag/cell

     iteration #  5     ecut=    37.00 Ry     beta= 0.70
     Davidson diagonalization with overlap
     ethr =  4.87E-08,  avg # of iterations =  2.0

     total cpu time spent up to now is     5389.2 secs

     total energy              =    -763.61985361 Ry
     Harris-Foulkes estimate   =    -763.61985409 Ry
     estimated scf accuracy    <       0.00000286 Ry

     total magnetization       =     0.00 Bohr mag/cell
     absolute magnetization    =     0.00 Bohr mag/cell

     iteration #  6     ecut=    37.00 Ry     beta= 0.70
     Davidson diagonalization with overlap
     ethr =  1.19E-08,  avg # of iterations =  2.8

     total cpu time spent up to now is     5400.9 secs

     total energy              =    -763.61985374 Ry
     Harris-Foulkes estimate   =    -763.61985379 Ry
     estimated scf accuracy    <       0.00000163 Ry

     total magnetization       =     0.00 Bohr mag/cell
     absolute magnetization    =     0.00 Bohr mag/cell

     iteration #  7     ecut=    37.00 Ry     beta= 0.70
     Davidson diagonalization with overlap
     ethr =  6.78E-09,  avg # of iterations =  1.0

     total cpu time spent up to now is     5410.9 secs

     total energy              =    -763.61985364 Ry
     Harris-Foulkes estimate   =    -763.61985376 Ry
     estimated scf accuracy    <       0.00000142 Ry

     total magnetization       =     0.00 Bohr mag/cell
     absolute magnetization    =     0.00 Bohr mag/cell

     iteration #  8     ecut=    37.00 Ry     beta= 0.70
     Davidson diagonalization with overlap
     ethr =  5.91E-09,  avg # of iterations =  1.0

     total cpu time spent up to now is     5420.8 secs

     total energy              =    -763.61985318 Ry
     Harris-Foulkes estimate   =    -763.61985365 Ry
     estimated scf accuracy    <       0.00000108 Ry

     total magnetization       =     0.00 Bohr mag/cell
     absolute magnetization    =     0.00 Bohr mag/cell

     iteration #  9     ecut=    37.00 Ry     beta= 0.70
     Davidson diagonalization with overlap
     ethr =  4.52E-09,  avg # of iterations =  2.0

     Magnetic moment per site:
     atom:    1    charge:   10.5752    magn:    0.0000    constr:    0.0000
     atom:    2    charge:   10.5752    magn:    0.0000    constr:    0.0000

     total cpu time spent up to now is     5432.1 secs

     End of self-consistent calculation

     Number of k-points >= 100: set verbosity='high' to print the bands.

     the Fermi energy is    10.4793 ev

!    total energy              =    -763.61985326 Ry
     Harris-Foulkes estimate   =    -763.61985333 Ry
     estimated scf accuracy    <       0.00000008 Ry

     total all-electron energy =    -22378.718723 Ry

     The total energy is the sum of the following terms:

     one-electron contribution =     -38.53463947 Ry
     hartree contribution      =      45.14197707 Ry
     xc contribution           =     -45.72209180 Ry
     ewald contribution        =    -153.19015341 Ry
     one-center paw contrib.   =    -571.31474865 Ry
     smearing contrib. (-TS)   =      -0.00019701 Ry

     total magnetization       =     0.00 Bohr mag/cell
     absolute magnetization    =     0.00 Bohr mag/cell

     convergence has been achieved in   9 iterations

     Forces acting on atoms (cartesian axes, Ry/au):

     atom    1 type  1   force =     0.00000000    0.00000000   -0.00000000
     atom    2 type  1   force =    -0.00000000   -0.00000000    0.00000000

     Total force =     0.000000     Total SCF correction =     0.000000


     Computing stress (Cartesian axis) and pressure

          total   stress  (Ry/bohr**3)                   (kbar)     P=   -7.18
  -0.00004274   0.00000000  -0.00000000         -6.29      0.00     -0.00
   0.00000000  -0.00004274   0.00000000          0.00     -6.29      0.00
  -0.00000000   0.00000000  -0.00006101         -0.00      0.00     -8.98


     number of scf cycles    =  48
     number of bfgs steps    =   1

     enthalpy old            =    -763.6198549181 Ry
     enthalpy new            =    -763.6198532627 Ry

     CASE: enthalpy_new > enthalpy_old

     new trust radius        =       0.0001121932 bohr
     new conv_thr            =       0.0000010000 Ry

     new unit-cell volume =    314.19642 a.u.^3 (    46.55910 Ang^3 )
     density =      8.01832 g/cm^3

CELL_PARAMETERS (alat=  5.68401275)
   1.000031648   0.000000000  -0.000000000
  -0.500015824   0.866052812   0.000000000
  -0.000000000   0.000000000   1.975504290

ATOMIC_POSITIONS (crystal)
Cd       0.666666667   0.333333333   0.750000000
Cd       0.333333333   0.666666667   0.250000000



     Writing output data file pw.save/
     NEW-OLD atomic charge density approx. for the potential
     extrapolated charge   23.99511, renormalised to   24.00000

     total cpu time spent up to now is     5451.6 secs

     Self-consistent Calculation

     iteration #  1     ecut=    37.00 Ry     beta= 0.70
     Davidson diagonalization with overlap
     ethr =  1.00E-06,  avg # of iterations =  2.0

     Threshold (ethr) on eigenvalues was too large:
     Diagonalizing with lowered threshold

     Davidson diagonalization with overlap
     ethr =  1.94E-08,  avg # of iterations =  1.2

     total cpu time spent up to now is     5473.1 secs

     total energy              =    -763.61984912 Ry
     Harris-Foulkes estimate   =    -763.62584520 Ry
     estimated scf accuracy    <       0.00000487 Ry

     total magnetization       =    -0.00 Bohr mag/cell
     absolute magnetization    =     0.00 Bohr mag/cell

     iteration #  2     ecut=    37.00 Ry     beta= 0.70
     Davidson diagonalization with overlap
     ethr =  2.03E-08,  avg # of iterations =  3.0

     total cpu time spent up to now is     5489.0 secs

     total energy              =    -763.61985444 Ry
     Harris-Foulkes estimate   =    -763.61985906 Ry
     estimated scf accuracy    <       0.00001076 Ry

     total magnetization       =     0.00 Bohr mag/cell
     absolute magnetization    =     0.00 Bohr mag/cell

     iteration #  3     ecut=    37.00 Ry     beta= 0.70
     Davidson diagonalization with overlap
     ethr =  2.03E-08,  avg # of iterations =  2.1

     total cpu time spent up to now is     5501.4 secs

     total energy              =    -763.61985508 Ry
     Harris-Foulkes estimate   =    -763.61985545 Ry
     estimated scf accuracy    <       0.00000129 Ry

     total magnetization       =     0.00 Bohr mag/cell
     absolute magnetization    =     0.00 Bohr mag/cell

     iteration #  4     ecut=    37.00 Ry     beta= 0.70
     Davidson diagonalization with overlap
     ethr =  5.36E-09,  avg # of iterations =  1.2

     Magnetic moment per site:
     atom:    1    charge:   10.5749    magn:    0.0000    constr:    0.0000
     atom:    2    charge:   10.5749    magn:    0.0000    constr:    0.0000

     total cpu time spent up to now is     5511.4 secs

     End of self-consistent calculation

     Number of k-points >= 100: set verbosity='high' to print the bands.

     the Fermi energy is    10.4824 ev

!    total energy              =    -763.61985471 Ry
     Harris-Foulkes estimate   =    -763.61985514 Ry
     estimated scf accuracy    <       0.00000051 Ry

     total all-electron energy =    -22378.718725 Ry

     The total energy is the sum of the following terms:

     one-electron contribution =     -38.51746565 Ry
     hartree contribution      =      45.13338861 Ry
     xc contribution           =     -45.72146471 Ry
     ewald contribution        =    -153.19983077 Ry
     one-center paw contrib.   =    -571.31428516 Ry
     smearing contrib. (-TS)   =      -0.00019703 Ry

     total magnetization       =     0.00 Bohr mag/cell
     absolute magnetization    =     0.00 Bohr mag/cell

     convergence has been achieved in   4 iterations

     Forces acting on atoms (cartesian axes, Ry/au):

     atom    1 type  1   force =     0.00000000    0.00000000   -0.00000000
     atom    2 type  1   force =    -0.00000000   -0.00000000    0.00000000

     Total force =     0.000000     Total SCF correction =     0.000000


     Computing stress (Cartesian axis) and pressure

          total   stress  (Ry/bohr**3)                   (kbar)     P=  -12.10
  -0.00007592   0.00000000  -0.00000000        -11.17      0.00     -0.00
   0.00000000  -0.00007592  -0.00000000          0.00    -11.17     -0.00
  -0.00000000   0.00000000  -0.00009495         -0.00      0.00    -13.97


     number of scf cycles    =  49
     number of bfgs steps    =   1

     enthalpy old            =    -763.6198549181 Ry
     enthalpy new            =    -763.6198547050 Ry

     CASE: enthalpy_new > enthalpy_old

     new trust radius        =       0.0000384996 bohr

     trust_radius < trust_radius_min

     resetting bfgs history

     new conv_thr            =       0.0000010000 Ry

     new unit-cell volume =    314.57687 a.u.^3 (    46.61548 Ang^3 )
     density =      8.00862 g/cm^3

CELL_PARAMETERS (alat=  5.68401275)
   1.000566328   0.000000000  -0.000000000
  -0.500283164   0.866515858   0.000000000
   0.000000000   0.000000000   1.975783094

ATOMIC_POSITIONS (crystal)
Cd       0.666666667   0.333333333   0.750000000
Cd       0.333333333   0.666666667   0.250000000



     Writing output data file pw.save/
     NEW-OLD atomic charge density approx. for the potential
     extrapolated charge   24.02901, renormalised to   24.00000

     total cpu time spent up to now is     5531.0 secs

     Self-consistent Calculation

     iteration #  1     ecut=    37.00 Ry     beta= 0.70
     Davidson diagonalization with overlap
     ethr =  1.00E-06,  avg # of iterations =  2.0

     total cpu time spent up to now is     5544.2 secs

     total energy              =    -763.61969640 Ry
     Harris-Foulkes estimate   =    -763.58428821 Ry
     estimated scf accuracy    <       0.00009063 Ry

     total magnetization       =     0.00 Bohr mag/cell
     absolute magnetization    =     0.00 Bohr mag/cell

     iteration #  2     ecut=    37.00 Ry     beta= 0.70
     Davidson diagonalization with overlap
     ethr =  3.78E-07,  avg # of iterations =  3.6

     total cpu time spent up to now is     5560.9 secs

     total energy              =    -763.61983753 Ry
     Harris-Foulkes estimate   =    -763.61994738 Ry
     estimated scf accuracy    <       0.00028590 Ry

     total magnetization       =     0.00 Bohr mag/cell
     absolute magnetization    =     0.00 Bohr mag/cell

     iteration #  3     ecut=    37.00 Ry     beta= 0.70
     Davidson diagonalization with overlap
     ethr =  3.78E-07,  avg # of iterations =  2.4

     total cpu time spent up to now is     5573.6 secs

     total energy              =    -763.61984412 Ry
     Harris-Foulkes estimate   =    -763.61985896 Ry
     estimated scf accuracy    <       0.00004947 Ry

     total magnetization       =    -0.00 Bohr mag/cell
     absolute magnetization    =     0.00 Bohr mag/cell

     iteration #  4     ecut=    37.00 Ry     beta= 0.70
     Davidson diagonalization with overlap
     ethr =  2.06E-07,  avg # of iterations =  1.0

     total cpu time spent up to now is     5583.6 secs

     total energy              =    -763.61984337 Ry
     Harris-Foulkes estimate   =    -763.61984655 Ry
     estimated scf accuracy    <       0.00001746 Ry

     total magnetization       =     0.00 Bohr mag/cell
     absolute magnetization    =     0.00 Bohr mag/cell

     iteration #  5     ecut=    37.00 Ry     beta= 0.70
     Davidson diagonalization with overlap
     ethr =  7.27E-08,  avg # of iterations =  2.0

     total cpu time spent up to now is     5594.9 secs

     total energy              =    -763.61984442 Ry
     Harris-Foulkes estimate   =    -763.61984513 Ry
     estimated scf accuracy    <       0.00000473 Ry

     total magnetization       =     0.00 Bohr mag/cell
     absolute magnetization    =     0.00 Bohr mag/cell

     iteration #  6     ecut=    37.00 Ry     beta= 0.70
     Davidson diagonalization with overlap
     ethr =  1.97E-08,  avg # of iterations =  2.9

     total cpu time spent up to now is     5606.9 secs

     total energy              =    -763.61984464 Ry
     Harris-Foulkes estimate   =    -763.61984468 Ry
     estimated scf accuracy    <       0.00000273 Ry

     total magnetization       =     0.00 Bohr mag/cell
     absolute magnetization    =     0.00 Bohr mag/cell

     iteration #  7     ecut=    37.00 Ry     beta= 0.70
     Davidson diagonalization with overlap
     ethr =  1.14E-08,  avg # of iterations =  1.0

     total cpu time spent up to now is     5617.1 secs

     total energy              =    -763.61984450 Ry
     Harris-Foulkes estimate   =    -763.61984467 Ry
     estimated scf accuracy    <       0.00000250 Ry

     total magnetization       =     0.00 Bohr mag/cell
     absolute magnetization    =     0.00 Bohr mag/cell

     iteration #  8     ecut=    37.00 Ry     beta= 0.70
     Davidson diagonalization with overlap
     ethr =  1.04E-08,  avg # of iterations =  1.0

     total cpu time spent up to now is     5627.3 secs

     total energy              =    -763.61984392 Ry
     Harris-Foulkes estimate   =    -763.61984452 Ry
     estimated scf accuracy    <       0.00000196 Ry

     total magnetization       =     0.00 Bohr mag/cell
     absolute magnetization    =     0.00 Bohr mag/cell

     iteration #  9     ecut=    37.00 Ry     beta= 0.70
     Davidson diagonalization with overlap
     ethr =  8.16E-09,  avg # of iterations =  1.4

     Magnetic moment per site:
     atom:    1    charge:   10.5765    magn:    0.0000    constr:    0.0000
     atom:    2    charge:   10.5765    magn:    0.0000    constr:    0.0000

     total cpu time spent up to now is     5637.6 secs

     End of self-consistent calculation

     Number of k-points >= 100: set verbosity='high' to print the bands.

     the Fermi energy is    10.4641 ev

!    total energy              =    -763.61984386 Ry
     Harris-Foulkes estimate   =    -763.61984409 Ry
     estimated scf accuracy    <       0.00000034 Ry

     total all-electron energy =    -22378.718714 Ry

     The total energy is the sum of the following terms:

     one-electron contribution =     -38.61352424 Ry
     hartree contribution      =      45.17467360 Ry
     xc contribution           =     -45.72297706 Ry
     ewald contribution        =    -153.14240688 Ry
     one-center paw contrib.   =    -571.31541252 Ry
     smearing contrib. (-TS)   =      -0.00019675 Ry

     total magnetization       =     0.00 Bohr mag/cell
     absolute magnetization    =     0.00 Bohr mag/cell

     convergence has been achieved in   9 iterations

     Forces acting on atoms (cartesian axes, Ry/au):

     atom    1 type  1   force =     0.00000000   -0.00000000    0.00000000
     atom    2 type  1   force =    -0.00000000    0.00000000   -0.00000000

     Total force =     0.000000     Total SCF correction =     0.000000


     Computing stress (Cartesian axis) and pressure

          total   stress  (Ry/bohr**3)                   (kbar)     P=    0.78
   0.00000975   0.00000000   0.00000000          1.43      0.00      0.00
   0.00000000   0.00000975  -0.00000000          0.00      1.43     -0.00
  -0.00000000  -0.00000000  -0.00000362         -0.00     -0.00     -0.53


     number of scf cycles    =  50
     number of bfgs steps    =   1

     enthalpy old            =    -763.6198549181 Ry
     enthalpy new            =    -763.6198438564 Ry

     CASE: enthalpy_new > enthalpy_old

     new trust radius        =       0.0004315902 bohr
     new conv_thr            =       0.0000010000 Ry

     new unit-cell volume =    314.26050 a.u.^3 (    46.56860 Ang^3 )
     density =      8.01668 g/cm^3

CELL_PARAMETERS (alat=  5.68401275)
   1.000121737   0.000000000  -0.000000000
  -0.500060869   0.866130831   0.000000000
   0.000000000   0.000000000   1.975551266

ATOMIC_POSITIONS (crystal)
Cd       0.666666667   0.333333333   0.750000000
Cd       0.333333333   0.666666667   0.250000000



     Writing output data file pw.save/
     NEW-OLD atomic charge density approx. for the potential
     extrapolated charge   23.97585, renormalised to   24.00000

     Writing output data file pw.save/

     init_run     :      8.86s CPU      9.67s WALL (       1 calls)
     electrons    :   4802.22s CPU   4649.65s WALL (      50 calls)
     update_pot   :    262.98s CPU    268.74s WALL (      50 calls)
     forces       :    168.94s CPU    175.62s WALL (      50 calls)
     stress       :    461.12s CPU    474.19s WALL (      50 calls)

     Called by init_run:
     wfcinit      :      3.50s CPU      3.33s WALL (       1 calls)
     potinit      :      2.23s CPU      2.62s WALL (       1 calls)
     hinit0       :      2.80s CPU      3.09s WALL (       1 calls)

     Called by electrons:
     c_bands      :   3451.62s CPU   3260.66s WALL (     384 calls)
     sum_band     :    822.61s CPU    769.77s WALL (     384 calls)
     v_of_rho     :    130.98s CPU    137.86s WALL (     419 calls)
     newd         :     81.95s CPU    160.29s WALL (     419 calls)
     PAW_pot      :    418.47s CPU    433.59s WALL (     469 calls)
     mix_rho      :      7.59s CPU      7.43s WALL (     384 calls)

     Called by c_bands:
     init_us_2    :     76.16s CPU     64.09s WALL (  154392 calls)
     cegterg      :   3275.70s CPU   3111.35s WALL (   64512 calls)

     Called by sum_band:
     sum_band:bec :      1.94s CPU      1.98s WALL (   72912 calls)
     addusdens    :    225.42s CPU    235.05s WALL (     384 calls)

     Called by *egterg:
     h_psi        :   2571.52s CPU   2291.86s WALL (  190590 calls)
     s_psi        :     57.70s CPU     39.23s WALL (  190590 calls)
     g_psi        :     10.94s CPU      9.36s WALL (  125910 calls)
     cdiaghg      :    384.20s CPU    568.08s WALL (  179502 calls)

     Called by h_psi:
     h_psi:pot    :   2564.47s CPU   2284.18s WALL (  190590 calls)
     h_psi:calbec :     89.17s CPU     66.81s WALL (  190590 calls)
     vloc_psi     :   2406.05s CPU   2166.54s WALL (  190590 calls)
     add_vuspsi   :     66.75s CPU     45.78s WALL (  190590 calls)

     General routines
     calbec       :    151.22s CPU    111.32s WALL (  305502 calls)
     fft          :     49.16s CPU     50.02s WALL (   12455 calls)
     ffts         :      0.77s CPU      0.77s WALL (    1606 calls)
     fftw         :   2619.16s CPU   2345.71s WALL ( 6133946 calls)
     interpolate  :      3.95s CPU      4.21s WALL (     838 calls)
     davcio       :      0.00s CPU      0.02s WALL (     168 calls)

     Parallel routines
     fft_scatt_xy :    318.38s CPU    291.10s WALL ( 6148007 calls)
     fft_scatt_yz :    419.91s CPU    409.09s WALL ( 6148007 calls)

     PWSCF        :      1h36m CPU      1h34m WALL


   This run was terminated on:  15:51:26   6Nov2020            

=------------------------------------------------------------------------------=
   JOB DONE.
=------------------------------------------------------------------------------=
-------------------------------------------------------
Primary job  terminated normally, but 1 process returned
a non-zero exit code.. Per user-direction, the job has been aborted.
-------------------------------------------------------
--------------------------------------------------------------------------
mpirun detected that one or more processes exited with non-zero status, thus causing
the job to be terminated. The first process to do so was:

  Process name: [[13033,1],0]
  Exit code:    3
--------------------------------------------------------------------------
