--------------------------------------------------------------------------
WARNING: Linux kernel CMA support was requested via the
btl_vader_single_copy_mechanism MCA variable, but CMA support is
not available due to restrictive ptrace settings.

The vader shared memory BTL will fall back on another single-copy
mechanism if one is available. This may result in lower performance.

  Local host: DESKTOP-12SE80T
--------------------------------------------------------------------------

     Program PWSCF v.6.4.1 starts on  6Nov2020 at 19:21:19 

     This program is part of the open-source Quantum ESPRESSO suite
     for quantum simulation of materials; please cite
         "P. Giannozzi et al., J. Phys.:Condens. Matter 21 395502 (2009);
         "P. Giannozzi et al., J. Phys.:Condens. Matter 29 465901 (2017);
          URL http://www.quantum-espresso.org", 
     in publications or presentations arising from this work. More details at
     http://www.quantum-espresso.org/quote

     Parallel version (MPI), running on     2 processors

     MPI processes distributed on     1 nodes
     R & G space division:  proc/nbgrp/npool/nimage =       2
     Waiting for input...
     Reading input from standard input

     Current dimensions of program PWSCF are:
     Max number of different atomic species (ntypx) = 10
     Max number of k-points (npk) =  40000
     Max angular momentum in pseudopotentials (lmaxx) =  3
               file Dy.pbe-spdn-kjpaw_psl.1.0.0.UPF: wavefunction(s)  5P renormalized

     Subspace diagonalization in iterative solution of the eigenvalue problem:
     a serial algorithm will be used

     Message from routine setup:
     DEPRECATED: symmetry with ibrav=0, use correct ibrav instead

     Parallelization info
     --------------------
     sticks:   dense  smooth     PW     G-vecs:    dense   smooth      PW
     Min         423     225     75                15549     6179    1165
     Max         424     226     76                15556     6180    1168
     Sum         847     451    151                31105    12359    2333



     bravais-lattice index     =            0
     lattice parameter (alat)  =       6.7898  a.u.
     unit-cell volume          =     426.5544 (a.u.)^3
     number of atoms/cell      =            2
     number of atomic types    =            1
     number of electrons       =        22.00
     number of Kohn-Sham states=           15
     kinetic-energy cutoff     =      36.0000  Ry
     charge density cutoff     =     265.0000  Ry
     convergence threshold     =      1.0E-06
     mixing beta               =       0.7000
     number of iterations used =            8  plain     mixing
     Exchange-correlation      = SLA PW PBX PBC ( 1  4  3  4 0 0)
     nstep                     =           50


     celldm(1)=   6.789786  celldm(2)=   0.000000  celldm(3)=   0.000000
     celldm(4)=   0.000000  celldm(5)=   0.000000  celldm(6)=   0.000000

     crystal axes: (cart. coord. in units of alat)
               a(1) = (   1.000000   0.000000   0.000000 )  
               a(2) = (  -0.500000   0.866025   0.000000 )  
               a(3) = (   0.000000   0.000000   1.573532 )  

     reciprocal axes: (cart. coord. in units 2 pi/alat)
               b(1) = (  1.000000  0.577350 -0.000000 )  
               b(2) = (  0.000000  1.154701  0.000000 )  
               b(3) = (  0.000000 -0.000000  0.635513 )  


     PseudoPot. # 1 for Dy read from file:
     ./potentials/Dy.pbe-spdn-kjpaw_psl.1.0.0.UPF
     MD5 check sum: dcf39381811a57a3d834ca4a7f58332c
     Pseudo is Projector augmented-wave + core cor, Zval = 11.0
     Generated using "atomic" code by A. Dal Corso v.6.2.2
     Shape of augmentation charge: PSQ
     Using radial grid of 1265 points,  6 beta functions with: 
                l(1) =   0
                l(2) =   0
                l(3) =   1
                l(4) =   1
                l(5) =   2
                l(6) =   2
     Q(r) pseudized with 0 coefficients 


     atomic species   valence    mass     pseudopotential
        Dy            11.00   162.50000     Dy( 1.00)

     Starting magnetic structure 
     atomic species   magnetization
        Dy           1.000

     24 Sym. Ops., with inversion, found (12 have fractional translation)



   Cartesian axes

     site n.     atom                  positions (alat units)
         1           Dy  tau(   1) = (   0.5000000   0.2886751   1.1801489  )
         2           Dy  tau(   2) = (  -0.0000000   0.5773503   0.3933830  )

     number of k points=    90  Methfessel-Paxton smearing, width (Ry)=  0.0200
                       cart. coord. in units 2pi/alat
        k(    1) = (   0.0500000   0.0866025   0.0529594), wk =   0.0066667
        k(    2) = (   0.0500000   0.0866025   0.1588783), wk =   0.0066667
        k(    3) = (   0.0500000   0.0866025   0.2647971), wk =   0.0066667
        k(    4) = (   0.0500000   0.2020726   0.0529594), wk =   0.0133333
        k(    5) = (   0.0500000   0.2020726   0.1588783), wk =   0.0133333
        k(    6) = (   0.0500000   0.2020726   0.2647971), wk =   0.0133333
        k(    7) = (   0.0500000   0.3175426   0.0529594), wk =   0.0133333
        k(    8) = (   0.0500000   0.3175426   0.1588783), wk =   0.0133333
        k(    9) = (   0.0500000   0.3175426   0.2647971), wk =   0.0133333
        k(   10) = (   0.0500000   0.4330127   0.0529594), wk =   0.0133333
        k(   11) = (   0.0500000   0.4330127   0.1588783), wk =   0.0133333
        k(   12) = (   0.0500000   0.4330127   0.2647971), wk =   0.0133333
        k(   13) = (   0.0500000   0.5484828   0.0529594), wk =   0.0133333
        k(   14) = (   0.0500000   0.5484828   0.1588783), wk =   0.0133333
        k(   15) = (   0.0500000   0.5484828   0.2647971), wk =   0.0133333
        k(   16) = (   0.0500000  -0.4907477   0.0529594), wk =   0.0133333
        k(   17) = (   0.0500000  -0.4907477   0.1588783), wk =   0.0133333
        k(   18) = (   0.0500000  -0.4907477   0.2647971), wk =   0.0133333
        k(   19) = (   0.0500000  -0.3752777   0.0529594), wk =   0.0133333
        k(   20) = (   0.0500000  -0.3752777   0.1588783), wk =   0.0133333
        k(   21) = (   0.0500000  -0.3752777   0.2647971), wk =   0.0133333
        k(   22) = (   0.0500000  -0.2598076   0.0529594), wk =   0.0133333
        k(   23) = (   0.0500000  -0.2598076   0.1588783), wk =   0.0133333
        k(   24) = (   0.0500000  -0.2598076   0.2647971), wk =   0.0133333
        k(   25) = (   0.0500000  -0.1443376   0.0529594), wk =   0.0133333
        k(   26) = (   0.0500000  -0.1443376   0.1588783), wk =   0.0133333
        k(   27) = (   0.0500000  -0.1443376   0.2647971), wk =   0.0133333
        k(   28) = (   0.0500000  -0.0288675   0.0529594), wk =   0.0066667
        k(   29) = (   0.0500000  -0.0288675   0.1588783), wk =   0.0066667
        k(   30) = (   0.0500000  -0.0288675   0.2647971), wk =   0.0066667
        k(   31) = (   0.1500000   0.2598076   0.0529594), wk =   0.0066667
        k(   32) = (   0.1500000   0.2598076   0.1588783), wk =   0.0066667
        k(   33) = (   0.1500000   0.2598076   0.2647971), wk =   0.0066667
        k(   34) = (   0.1500000   0.3752777   0.0529594), wk =   0.0133333
        k(   35) = (   0.1500000   0.3752777   0.1588783), wk =   0.0133333
        k(   36) = (   0.1500000   0.3752777   0.2647971), wk =   0.0133333
        k(   37) = (   0.1500000   0.4907477   0.0529594), wk =   0.0133333
        k(   38) = (   0.1500000   0.4907477   0.1588783), wk =   0.0133333
        k(   39) = (   0.1500000   0.4907477   0.2647971), wk =   0.0133333
        k(   40) = (   0.1500000   0.6062178   0.0529594), wk =   0.0133333
        k(   41) = (   0.1500000   0.6062178   0.1588783), wk =   0.0133333
        k(   42) = (   0.1500000   0.6062178   0.2647971), wk =   0.0133333
        k(   43) = (   0.1500000  -0.4330127   0.0529594), wk =   0.0133333
        k(   44) = (   0.1500000  -0.4330127   0.1588783), wk =   0.0133333
        k(   45) = (   0.1500000  -0.4330127   0.2647971), wk =   0.0133333
        k(   46) = (   0.1500000  -0.3175426   0.0529594), wk =   0.0133333
        k(   47) = (   0.1500000  -0.3175426   0.1588783), wk =   0.0133333
        k(   48) = (   0.1500000  -0.3175426   0.2647971), wk =   0.0133333
        k(   49) = (   0.1500000  -0.2020726   0.0529594), wk =   0.0133333
        k(   50) = (   0.1500000  -0.2020726   0.1588783), wk =   0.0133333
        k(   51) = (   0.1500000  -0.2020726   0.2647971), wk =   0.0133333
        k(   52) = (   0.1500000  -0.0866025   0.0529594), wk =   0.0066667
        k(   53) = (   0.1500000  -0.0866025   0.1588783), wk =   0.0066667
        k(   54) = (   0.1500000  -0.0866025   0.2647971), wk =   0.0066667
        k(   55) = (   0.2500000   0.4330127   0.0529594), wk =   0.0066667
        k(   56) = (   0.2500000   0.4330127   0.1588783), wk =   0.0066667
        k(   57) = (   0.2500000   0.4330127   0.2647971), wk =   0.0066667
        k(   58) = (   0.2500000   0.5484828   0.0529594), wk =   0.0133333
        k(   59) = (   0.2500000   0.5484828   0.1588783), wk =   0.0133333
        k(   60) = (   0.2500000   0.5484828   0.2647971), wk =   0.0133333
        k(   61) = (   0.2500000   0.6639528   0.0529594), wk =   0.0133333
        k(   62) = (   0.2500000   0.6639528   0.1588783), wk =   0.0133333
        k(   63) = (   0.2500000   0.6639528   0.2647971), wk =   0.0133333
        k(   64) = (   0.2500000  -0.3752777   0.0529594), wk =   0.0133333
        k(   65) = (   0.2500000  -0.3752777   0.1588783), wk =   0.0133333
        k(   66) = (   0.2500000  -0.3752777   0.2647971), wk =   0.0133333
        k(   67) = (   0.2500000  -0.2598076   0.0529594), wk =   0.0133333
        k(   68) = (   0.2500000  -0.2598076   0.1588783), wk =   0.0133333
        k(   69) = (   0.2500000  -0.2598076   0.2647971), wk =   0.0133333
        k(   70) = (   0.2500000  -0.1443376   0.0529594), wk =   0.0066667
        k(   71) = (   0.2500000  -0.1443376   0.1588783), wk =   0.0066667
        k(   72) = (   0.2500000  -0.1443376   0.2647971), wk =   0.0066667
        k(   73) = (   0.3500000   0.6062178   0.0529594), wk =   0.0066667
        k(   74) = (   0.3500000   0.6062178   0.1588783), wk =   0.0066667
        k(   75) = (   0.3500000   0.6062178   0.2647971), wk =   0.0066667
        k(   76) = (   0.3500000   0.7216878   0.0529594), wk =   0.0133333
        k(   77) = (   0.3500000   0.7216878   0.1588783), wk =   0.0133333
        k(   78) = (   0.3500000   0.7216878   0.2647971), wk =   0.0133333
        k(   79) = (   0.3500000  -0.3175426   0.0529594), wk =   0.0133333
        k(   80) = (   0.3500000  -0.3175426   0.1588783), wk =   0.0133333
        k(   81) = (   0.3500000  -0.3175426   0.2647971), wk =   0.0133333
        k(   82) = (   0.3500000  -0.2020726   0.0529594), wk =   0.0066667
        k(   83) = (   0.3500000  -0.2020726   0.1588783), wk =   0.0066667
        k(   84) = (   0.3500000  -0.2020726   0.2647971), wk =   0.0066667
        k(   85) = (   0.4500000   0.7794229   0.0529594), wk =   0.0066667
        k(   86) = (   0.4500000   0.7794229   0.1588783), wk =   0.0066667
        k(   87) = (   0.4500000   0.7794229   0.2647971), wk =   0.0066667
        k(   88) = (   0.4500000  -0.2598076   0.0529594), wk =   0.0066667
        k(   89) = (   0.4500000  -0.2598076   0.1588783), wk =   0.0066667
        k(   90) = (   0.4500000  -0.2598076   0.2647971), wk =   0.0066667

     Dense  grid:    31105 G-vectors     FFT dimensions: (  36,  36,  60)

     Smooth grid:    12359 G-vectors     FFT dimensions: (  25,  25,  48)

     Estimated max dynamical RAM per process >      98.85 MB

     Estimated total dynamical RAM >     197.69 MB
     Generating pointlists ...
     new r_m :   0.4025 (alat units)  2.7332 (a.u.) for type    1

     Initial potential from superposition of free atoms

     starting charge   21.96168, renormalised to   22.00000

     negative rho (up, down):  0.000E+00 1.543E-04
     Starting wfcs are   26 randomized atomic wfcs
     Checking if some PAW data can be deallocated... 

     total cpu time spent up to now is        8.3 secs

     Self-consistent Calculation

     iteration #  1     ecut=    36.00 Ry     beta= 0.70
     Davidson diagonalization with overlap
     ethr =  1.00E-02,  avg # of iterations =  1.9

     total cpu time spent up to now is       17.2 secs

     total energy              =   -1174.22185672 Ry
     Harris-Foulkes estimate   =   -1172.40274414 Ry
     estimated scf accuracy    <       1.23433531 Ry

     total magnetization       =     4.54 Bohr mag/cell
     absolute magnetization    =     4.54 Bohr mag/cell

     iteration #  2     ecut=    36.00 Ry     beta= 0.70
     Davidson diagonalization with overlap
     ethr =  5.61E-03,  avg # of iterations =  1.0

     total cpu time spent up to now is       25.6 secs

     total energy              =   -1174.52976272 Ry
     Harris-Foulkes estimate   =   -1174.28602198 Ry
     estimated scf accuracy    <       0.15016362 Ry

     total magnetization       =     2.98 Bohr mag/cell
     absolute magnetization    =     2.98 Bohr mag/cell

     iteration #  3     ecut=    36.00 Ry     beta= 0.70
     Davidson diagonalization with overlap
     ethr =  6.83E-04,  avg # of iterations =  2.1

     total cpu time spent up to now is       35.0 secs

     total energy              =   -1174.58831907 Ry
     Harris-Foulkes estimate   =   -1174.57900155 Ry
     estimated scf accuracy    <       0.00174646 Ry

     total magnetization       =     1.55 Bohr mag/cell
     absolute magnetization    =     1.55 Bohr mag/cell

     iteration #  4     ecut=    36.00 Ry     beta= 0.70
     Davidson diagonalization with overlap
     ethr =  7.94E-06,  avg # of iterations =  3.4

     total cpu time spent up to now is       48.0 secs

     total energy              =   -1174.59387524 Ry
     Harris-Foulkes estimate   =   -1174.59132809 Ry
     estimated scf accuracy    <       0.00037607 Ry

     total magnetization       =     1.21 Bohr mag/cell
     absolute magnetization    =     1.21 Bohr mag/cell

     iteration #  5     ecut=    36.00 Ry     beta= 0.70
     Davidson diagonalization with overlap
     ethr =  1.71E-06,  avg # of iterations =  3.0

     total cpu time spent up to now is       59.8 secs

     total energy              =   -1174.59598877 Ry
     Harris-Foulkes estimate   =   -1174.59560226 Ry
     estimated scf accuracy    <       0.00006339 Ry

     total magnetization       =     0.88 Bohr mag/cell
     absolute magnetization    =     0.88 Bohr mag/cell

     iteration #  6     ecut=    36.00 Ry     beta= 0.70
     Davidson diagonalization with overlap
     ethr =  2.88E-07,  avg # of iterations =  2.6

     total cpu time spent up to now is       70.5 secs

     total energy              =   -1174.59625267 Ry
     Harris-Foulkes estimate   =   -1174.59614587 Ry
     estimated scf accuracy    <       0.00002201 Ry

     total magnetization       =     0.78 Bohr mag/cell
     absolute magnetization    =     0.78 Bohr mag/cell

     iteration #  7     ecut=    36.00 Ry     beta= 0.70
     Davidson diagonalization with overlap
     ethr =  1.00E-07,  avg # of iterations =  3.9

     total cpu time spent up to now is       84.2 secs

     total energy              =   -1174.59658431 Ry
     Harris-Foulkes estimate   =   -1174.59675255 Ry
     estimated scf accuracy    <       0.00000894 Ry

     total magnetization       =     0.58 Bohr mag/cell
     absolute magnetization    =     0.58 Bohr mag/cell

     iteration #  8     ecut=    36.00 Ry     beta= 0.70
     Davidson diagonalization with overlap
     ethr =  4.06E-08,  avg # of iterations =  4.5

     total cpu time spent up to now is       99.1 secs

     total energy              =   -1174.59658304 Ry
     Harris-Foulkes estimate   =   -1174.59709453 Ry
     estimated scf accuracy    <       0.00000247 Ry

     total magnetization       =     0.38 Bohr mag/cell
     absolute magnetization    =     0.38 Bohr mag/cell

     iteration #  9     ecut=    36.00 Ry     beta= 0.70
     Davidson diagonalization with overlap
     ethr =  1.12E-08,  avg # of iterations =  5.5

     Magnetic moment per site:
     atom:    1    charge:    9.4969    magn:    0.0410    constr:    0.0000
     atom:    2    charge:    9.4969    magn:    0.0410    constr:    0.0000

     total cpu time spent up to now is      116.7 secs

     End of self-consistent calculation

     Number of k-points >= 100: set verbosity='high' to print the bands.

     the Fermi energy is    10.3155 ev

!    total energy              =   -1174.59729902 Ry
     Harris-Foulkes estimate   =   -1174.59729481 Ry
     estimated scf accuracy    <       0.00000046 Ry

     total all-electron energy =    -48629.056573 Ry

     The total energy is the sum of the following terms:

     one-electron contribution =     -30.09026069 Ry
     hartree contribution      =      23.44433896 Ry
     xc contribution           =    -122.94974154 Ry
     ewald contribution        =    -116.95948936 Ry
     one-center paw contrib.   =    -928.04098186 Ry
     smearing contrib. (-TS)   =      -0.00116452 Ry

     total magnetization       =     0.14 Bohr mag/cell
     absolute magnetization    =     0.14 Bohr mag/cell

     convergence has been achieved in   9 iterations

     Forces acting on atoms (cartesian axes, Ry/au):

     atom    1 type  1   force =     0.00000000    0.00000000    0.00000000
     atom    2 type  1   force =     0.00000000   -0.00000000    0.00000000

     Total force =     0.000000     Total SCF correction =     0.000000


     Computing stress (Cartesian axis) and pressure

          total   stress  (Ry/bohr**3)                   (kbar)     P=    1.39
   0.00001721  -0.00000000  -0.00000000          2.53     -0.00     -0.00
  -0.00000000   0.00001721   0.00000000         -0.00      2.53      0.00
   0.00000000   0.00000000  -0.00000616          0.00      0.00     -0.91


     BFGS Geometry Optimization

     number of scf cycles    =   1
     number of bfgs steps    =   0

     enthalpy new            =   -1174.5972990164 Ry

     new trust radius        =       0.0017772345 bohr
     new conv_thr            =       0.0000010000 Ry

     new unit-cell volume =    426.85581 a.u.^3 (    63.25350 Ang^3 )
     density =      8.53194 g/cm^3

CELL_PARAMETERS (alat=  6.78978600)
   1.000430257  -0.000000000   0.000000000
  -0.500215128   0.866398017   0.000000000
  -0.000000000   0.000000000   1.573289599

ATOMIC_POSITIONS (crystal)
Dy       0.666666667   0.333333333   0.750000000
Dy       0.333333333   0.666666667   0.250000000



     Writing output data file pw.save/
     NEW-OLD atomic charge density approx. for the potential
     extrapolated charge   22.01551, renormalised to   22.00000

     total cpu time spent up to now is      126.0 secs

     Self-consistent Calculation

     iteration #  1     ecut=    36.00 Ry     beta= 0.70
     Davidson diagonalization with overlap
     ethr =  1.00E-06,  avg # of iterations =  2.0

     Threshold (ethr) on eigenvalues was too large:
     Diagonalizing with lowered threshold

     Davidson diagonalization with overlap
     ethr =  2.42E-08,  avg # of iterations =  1.2

     total cpu time spent up to now is      144.8 secs

     total energy              =   -1174.59730011 Ry
     Harris-Foulkes estimate   =   -1174.58839399 Ry
     estimated scf accuracy    <       0.00000543 Ry

     total magnetization       =     0.13 Bohr mag/cell
     absolute magnetization    =     0.13 Bohr mag/cell

     iteration #  2     ecut=    36.00 Ry     beta= 0.70
     Davidson diagonalization with overlap
     ethr =  2.47E-08,  avg # of iterations =  3.0

     total cpu time spent up to now is      157.5 secs

     total energy              =   -1174.59731377 Ry
     Harris-Foulkes estimate   =   -1174.59731572 Ry
     estimated scf accuracy    <       0.00000646 Ry

     total magnetization       =     0.12 Bohr mag/cell
     absolute magnetization    =     0.12 Bohr mag/cell

     iteration #  3     ecut=    36.00 Ry     beta= 0.70
     Davidson diagonalization with overlap
     ethr =  2.47E-08,  avg # of iterations =  1.7

     total cpu time spent up to now is      166.5 secs

     total energy              =   -1174.59731513 Ry
     Harris-Foulkes estimate   =   -1174.59731433 Ry
     estimated scf accuracy    <       0.00000158 Ry

     total magnetization       =     0.12 Bohr mag/cell
     absolute magnetization    =     0.12 Bohr mag/cell

     iteration #  4     ecut=    36.00 Ry     beta= 0.70
     Davidson diagonalization with overlap
     ethr =  7.16E-09,  avg # of iterations =  2.6

     Magnetic moment per site:
     atom:    1    charge:    9.4972    magn:    0.0304    constr:    0.0000
     atom:    2    charge:    9.4972    magn:    0.0304    constr:    0.0000

     total cpu time spent up to now is      178.1 secs

     End of self-consistent calculation

     Number of k-points >= 100: set verbosity='high' to print the bands.

     the Fermi energy is    10.3065 ev

!    total energy              =   -1174.59731871 Ry
     Harris-Foulkes estimate   =   -1174.59731730 Ry
     estimated scf accuracy    <       0.00000016 Ry

     total all-electron energy =    -48629.056593 Ry

     The total energy is the sum of the following terms:

     one-electron contribution =     -30.13163717 Ry
     hartree contribution      =      23.45620119 Ry
     xc contribution           =    -122.94853199 Ry
     ewald contribution        =    -116.93125405 Ry
     one-center paw contrib.   =    -928.04091287 Ry
     smearing contrib. (-TS)   =      -0.00118383 Ry

     total magnetization       =     0.11 Bohr mag/cell
     absolute magnetization    =     0.11 Bohr mag/cell

     convergence has been achieved in   4 iterations

     Forces acting on atoms (cartesian axes, Ry/au):

     atom    1 type  1   force =    -0.00000000   -0.00000000    0.00000000
     atom    2 type  1   force =     0.00000000    0.00000000   -0.00000000

     Total force =     0.000000     Total SCF correction =     0.000000


     Computing stress (Cartesian axis) and pressure

          total   stress  (Ry/bohr**3)                   (kbar)     P=    0.98
   0.00001543  -0.00000000  -0.00000000          2.27     -0.00     -0.00
  -0.00000000   0.00001543  -0.00000000         -0.00      2.27     -0.00
   0.00000000  -0.00000000  -0.00001080          0.00     -0.00     -1.59


     number of scf cycles    =   2
     number of bfgs steps    =   1

     enthalpy old            =   -1174.5972990164 Ry
     enthalpy new            =   -1174.5973187132 Ry

     CASE: enthalpy_new < enthalpy_old


     WARNING: bfgs curvature condition failed, Theta= 0.843
     new trust radius        =       0.0026656465 bohr
     new conv_thr            =       0.0000000100 Ry

     new unit-cell volume =    427.26999 a.u.^3 (    63.31488 Ang^3 )
     density =      8.52367 g/cm^3

CELL_PARAMETERS (alat=  6.78978600)
   1.001075641  -0.000000000   0.000000000
  -0.500537821   0.866956937  -0.000000000
  -0.000000000  -0.000000000   1.572786271

ATOMIC_POSITIONS (crystal)
Dy       0.666666667   0.333333333   0.750000000
Dy       0.333333333   0.666666667   0.250000000



     Writing output data file pw.save/
     NEW-OLD atomic charge density approx. for the potential
     extrapolated charge   22.02129, renormalised to   22.00000

     total cpu time spent up to now is      187.4 secs

     Self-consistent Calculation

     iteration #  1     ecut=    36.00 Ry     beta= 0.70
     Davidson diagonalization with overlap
     ethr =  1.00E-06,  avg # of iterations =  2.0

     Threshold (ethr) on eigenvalues was too large:
     Diagonalizing with lowered threshold

     Davidson diagonalization with overlap
     ethr =  4.36E-08,  avg # of iterations =  1.1

     total cpu time spent up to now is      205.9 secs

     total energy              =   -1174.59730950 Ry
     Harris-Foulkes estimate   =   -1174.58505484 Ry
     estimated scf accuracy    <       0.00000978 Ry

     total magnetization       =     0.10 Bohr mag/cell
     absolute magnetization    =     0.10 Bohr mag/cell

     iteration #  2     ecut=    36.00 Ry     beta= 0.70
     Davidson diagonalization with overlap
     ethr =  4.45E-08,  avg # of iterations =  3.0

     total cpu time spent up to now is      218.8 secs

     total energy              =   -1174.59733215 Ry
     Harris-Foulkes estimate   =   -1174.59733737 Ry
     estimated scf accuracy    <       0.00001190 Ry

     total magnetization       =     0.09 Bohr mag/cell
     absolute magnetization    =     0.09 Bohr mag/cell

     iteration #  3     ecut=    36.00 Ry     beta= 0.70
     Davidson diagonalization with overlap
     ethr =  4.45E-08,  avg # of iterations =  1.6

     total cpu time spent up to now is      227.8 secs

     total energy              =   -1174.59733206 Ry
     Harris-Foulkes estimate   =   -1174.59733294 Ry
     estimated scf accuracy    <       0.00000271 Ry

     total magnetization       =     0.09 Bohr mag/cell
     absolute magnetization    =     0.09 Bohr mag/cell

     iteration #  4     ecut=    36.00 Ry     beta= 0.70
     Davidson diagonalization with overlap
     ethr =  1.23E-08,  avg # of iterations =  2.0

     total cpu time spent up to now is      238.6 secs

     total energy              =   -1174.59733393 Ry
     Harris-Foulkes estimate   =   -1174.59733323 Ry
     estimated scf accuracy    <       0.00000011 Ry

     total magnetization       =     0.08 Bohr mag/cell
     absolute magnetization    =     0.08 Bohr mag/cell

     iteration #  5     ecut=    36.00 Ry     beta= 0.70
     Davidson diagonalization with overlap
     ethr =  4.94E-10,  avg # of iterations =  3.0

     total cpu time spent up to now is      250.5 secs

     total energy              =   -1174.59730922 Ry
     Harris-Foulkes estimate   =   -1174.59733426 Ry
     estimated scf accuracy    <       0.00000008 Ry

     total magnetization       =     0.07 Bohr mag/cell
     absolute magnetization    =     0.07 Bohr mag/cell

     iteration #  6     ecut=    36.00 Ry     beta= 0.70
     Davidson diagonalization with overlap
     ethr =  3.63E-10,  avg # of iterations =  5.7

     total cpu time spent up to now is      267.9 secs

     total energy              =   -1174.59733862 Ry
     Harris-Foulkes estimate   =   -1174.59734135 Ry
     estimated scf accuracy    <       0.00000126 Ry

     total magnetization       =     0.02 Bohr mag/cell
     absolute magnetization    =     0.02 Bohr mag/cell

     iteration #  7     ecut=    36.00 Ry     beta= 0.70
     Davidson diagonalization with overlap
     ethr =  3.63E-10,  avg # of iterations =  4.0

     total cpu time spent up to now is      281.9 secs

     total energy              =   -1174.59734062 Ry
     Harris-Foulkes estimate   =   -1174.59734134 Ry
     estimated scf accuracy    <       0.00000030 Ry

     total magnetization       =     0.01 Bohr mag/cell
     absolute magnetization    =     0.01 Bohr mag/cell

     iteration #  8     ecut=    36.00 Ry     beta= 0.70
     Davidson diagonalization with overlap
     ethr =  3.63E-10,  avg # of iterations =  3.1

     Magnetic moment per site:
     atom:    1    charge:    9.4976    magn:   -0.0000    constr:    0.0000
     atom:    2    charge:    9.4976    magn:   -0.0000    constr:    0.0000

     total cpu time spent up to now is      294.2 secs

     End of self-consistent calculation

     Number of k-points >= 100: set verbosity='high' to print the bands.

     the Fermi energy is    10.2940 ev

!    total energy              =   -1174.59734120 Ry
     Harris-Foulkes estimate   =   -1174.59734120 Ry
     estimated scf accuracy    <          3.6E-09 Ry

     total all-electron energy =    -48629.056615 Ry

     The total energy is the sum of the following terms:

     one-electron contribution =     -30.18916316 Ry
     hartree contribution      =      23.47363701 Ry
     xc contribution           =    -122.94736654 Ry
     ewald contribution        =    -116.89228140 Ry
     one-center paw contrib.   =    -928.04095893 Ry
     smearing contrib. (-TS)   =      -0.00120818 Ry

     total magnetization       =    -0.00 Bohr mag/cell
     absolute magnetization    =     0.00 Bohr mag/cell

     convergence has been achieved in   8 iterations

     Forces acting on atoms (cartesian axes, Ry/au):

     atom    1 type  1   force =    -0.00000000    0.00000000   -0.00000000
     atom    2 type  1   force =     0.00000000    0.00000000    0.00000000

     Total force =     0.000000     Total SCF correction =     0.000000


     Computing stress (Cartesian axis) and pressure

          total   stress  (Ry/bohr**3)                   (kbar)     P=    0.77
   0.00001316  -0.00000000   0.00000000          1.94     -0.00      0.00
   0.00000000   0.00001316   0.00000000          0.00      1.94      0.00
   0.00000000   0.00000000  -0.00001054          0.00      0.00     -1.55


     number of scf cycles    =   3
     number of bfgs steps    =   2

     enthalpy old            =   -1174.5973187132 Ry
     enthalpy new            =   -1174.5973412022 Ry

     CASE: enthalpy_new < enthalpy_old

     new trust radius        =       0.0039978300 bohr
     new conv_thr            =       0.0000000100 Ry

     new unit-cell volume =    427.87441 a.u.^3 (    63.40445 Ang^3 )
     density =      8.51163 g/cm^3

CELL_PARAMETERS (alat=  6.78978600)
   1.002043719  -0.000000000   0.000000000
  -0.501021859   0.867795316  -0.000000000
  -0.000000000   0.000000000   1.571969385

ATOMIC_POSITIONS (crystal)
Dy       0.666666667   0.333333333   0.750000000
Dy       0.333333333   0.666666667   0.250000000



     Writing output data file pw.save/
     NEW-OLD atomic charge density approx. for the potential
     extrapolated charge   22.03102, renormalised to   22.00000

     total cpu time spent up to now is      303.5 secs

     Self-consistent Calculation

     iteration #  1     ecut=    36.00 Ry     beta= 0.70
     Davidson diagonalization with overlap
     ethr =  1.00E-06,  avg # of iterations =  2.0

     Threshold (ethr) on eigenvalues was too large:
     Diagonalizing with lowered threshold

     Davidson diagonalization with overlap
     ethr =  9.81E-08,  avg # of iterations =  1.1

     total cpu time spent up to now is      322.0 secs

     total energy              =   -1174.59730656 Ry
     Harris-Foulkes estimate   =   -1174.57938887 Ry
     estimated scf accuracy    <       0.00002196 Ry

     total magnetization       =    -0.00 Bohr mag/cell
     absolute magnetization    =     0.00 Bohr mag/cell

     iteration #  2     ecut=    36.00 Ry     beta= 0.70
     Davidson diagonalization with overlap
     ethr =  9.98E-08,  avg # of iterations =  3.0

     total cpu time spent up to now is      334.8 secs

     total energy              =   -1174.59735328 Ry
     Harris-Foulkes estimate   =   -1174.59736588 Ry
     estimated scf accuracy    <       0.00002525 Ry

     total magnetization       =    -0.00 Bohr mag/cell
     absolute magnetization    =     0.00 Bohr mag/cell

     iteration #  3     ecut=    36.00 Ry     beta= 0.70
     Davidson diagonalization with overlap
     ethr =  9.98E-08,  avg # of iterations =  1.7

     total cpu time spent up to now is      343.9 secs

     total energy              =   -1174.59735142 Ry
     Harris-Foulkes estimate   =   -1174.59735482 Ry
     estimated scf accuracy    <       0.00000536 Ry

     total magnetization       =    -0.00 Bohr mag/cell
     absolute magnetization    =     0.00 Bohr mag/cell

     iteration #  4     ecut=    36.00 Ry     beta= 0.70
     Davidson diagonalization with overlap
     ethr =  2.44E-08,  avg # of iterations =  2.0

     total cpu time spent up to now is      354.4 secs

     total energy              =   -1174.59735214 Ry
     Harris-Foulkes estimate   =   -1174.59735226 Ry
     estimated scf accuracy    <       0.00000029 Ry

     total magnetization       =    -0.00 Bohr mag/cell
     absolute magnetization    =     0.00 Bohr mag/cell

     iteration #  5     ecut=    36.00 Ry     beta= 0.70
     Davidson diagonalization with overlap
     ethr =  1.34E-09,  avg # of iterations =  1.5

     total cpu time spent up to now is      363.2 secs

     total energy              =   -1174.59735213 Ry
     Harris-Foulkes estimate   =   -1174.59735216 Ry
     estimated scf accuracy    <       0.00000010 Ry

     total magnetization       =    -0.00 Bohr mag/cell
     absolute magnetization    =     0.00 Bohr mag/cell

     iteration #  6     ecut=    36.00 Ry     beta= 0.70
     Davidson diagonalization with overlap
     ethr =  4.57E-10,  avg # of iterations =  1.9

     total cpu time spent up to now is      373.1 secs

     total energy              =   -1174.59735212 Ry
     Harris-Foulkes estimate   =   -1174.59735213 Ry
     estimated scf accuracy    <       0.00000003 Ry

     total magnetization       =    -0.00 Bohr mag/cell
     absolute magnetization    =     0.00 Bohr mag/cell

     iteration #  7     ecut=    36.00 Ry     beta= 0.70
     Davidson diagonalization with overlap
     ethr =  1.20E-10,  avg # of iterations =  2.1

     Magnetic moment per site:
     atom:    1    charge:    9.4981    magn:   -0.0000    constr:    0.0000
     atom:    2    charge:    9.4981    magn:   -0.0000    constr:    0.0000

     total cpu time spent up to now is      385.6 secs

     End of self-consistent calculation

     Number of k-points >= 100: set verbosity='high' to print the bands.

     the Fermi energy is    10.2762 ev

!    total energy              =   -1174.59735213 Ry
     Harris-Foulkes estimate   =   -1174.59735213 Ry
     estimated scf accuracy    <          8.7E-11 Ry

     total all-electron energy =    -48629.056626 Ry

     The total energy is the sum of the following terms:

     one-electron contribution =     -30.27229833 Ry
     hartree contribution      =      23.49777681 Ry
     xc contribution           =    -122.94537106 Ry
     ewald contribution        =    -116.83534935 Ry
     one-center paw contrib.   =    -928.04090420 Ry
     smearing contrib. (-TS)   =      -0.00120599 Ry

     total magnetization       =    -0.00 Bohr mag/cell
     absolute magnetization    =     0.00 Bohr mag/cell

     convergence has been achieved in   7 iterations

     Forces acting on atoms (cartesian axes, Ry/au):

     atom    1 type  1   force =     0.00000000    0.00000000    0.00000000
     atom    2 type  1   force =    -0.00000000   -0.00000000   -0.00000000

     Total force =     0.000000     Total SCF correction =     0.000000


     Computing stress (Cartesian axis) and pressure

          total   stress  (Ry/bohr**3)                   (kbar)     P=    0.23
   0.00000772  -0.00000000   0.00000000          1.14     -0.00      0.00
   0.00000000   0.00000772   0.00000000          0.00      1.14      0.00
   0.00000000   0.00000000  -0.00001085          0.00      0.00     -1.60


     number of scf cycles    =   4
     number of bfgs steps    =   3

     enthalpy old            =   -1174.5973412022 Ry
     enthalpy new            =   -1174.5973521263 Ry

     CASE: enthalpy_new < enthalpy_old

     new trust radius        =       0.0059951875 bohr
     new conv_thr            =       0.0000000100 Ry

     new unit-cell volume =    428.70599 a.u.^3 (    63.52767 Ang^3 )
     density =      8.49512 g/cm^3

CELL_PARAMETERS (alat=  6.78978600)
   1.003495835  -0.000000000  -0.000000000
  -0.501747917   0.869052885   0.000000000
  -0.000000000   0.000000000   1.570469539

ATOMIC_POSITIONS (crystal)
Dy       0.666666667   0.333333333   0.750000000
Dy       0.333333333   0.666666667   0.250000000



     Writing output data file pw.save/
     NEW-OLD atomic charge density approx. for the potential
     extrapolated charge   22.04260, renormalised to   22.00000

     total cpu time spent up to now is      396.2 secs

     Self-consistent Calculation

     iteration #  1     ecut=    36.00 Ry     beta= 0.70
     Davidson diagonalization with overlap
     ethr =  1.00E-06,  avg # of iterations =  2.9

     total cpu time spent up to now is      414.3 secs

     total energy              =   -1174.59727556 Ry
     Harris-Foulkes estimate   =   -1174.57255218 Ry
     estimated scf accuracy    <       0.00004089 Ry

     total magnetization       =    -0.00 Bohr mag/cell
     absolute magnetization    =     0.00 Bohr mag/cell

     iteration #  2     ecut=    36.00 Ry     beta= 0.70
     Davidson diagonalization with overlap
     ethr =  1.86E-07,  avg # of iterations =  3.0

     total cpu time spent up to now is      441.4 secs

     total energy              =   -1174.59736376 Ry
     Harris-Foulkes estimate   =   -1174.59738748 Ry
     estimated scf accuracy    <       0.00004766 Ry

     total magnetization       =    -0.00 Bohr mag/cell
     absolute magnetization    =     0.00 Bohr mag/cell

     iteration #  3     ecut=    36.00 Ry     beta= 0.70
     Davidson diagonalization with overlap
     ethr =  1.86E-07,  avg # of iterations =  1.8

     total cpu time spent up to now is      451.5 secs

     total energy              =   -1174.59736000 Ry
     Harris-Foulkes estimate   =   -1174.59736664 Ry
     estimated scf accuracy    <       0.00001022 Ry

     total magnetization       =    -0.00 Bohr mag/cell
     absolute magnetization    =     0.00 Bohr mag/cell

     iteration #  4     ecut=    36.00 Ry     beta= 0.70
     Davidson diagonalization with overlap
     ethr =  4.64E-08,  avg # of iterations =  2.0

     total cpu time spent up to now is      463.0 secs

     total energy              =   -1174.59736149 Ry
     Harris-Foulkes estimate   =   -1174.59736166 Ry
     estimated scf accuracy    <       0.00000046 Ry

     total magnetization       =    -0.00 Bohr mag/cell
     absolute magnetization    =     0.00 Bohr mag/cell

     iteration #  5     ecut=    36.00 Ry     beta= 0.70
     Davidson diagonalization with overlap
     ethr =  2.08E-09,  avg # of iterations =  1.8

     total cpu time spent up to now is      472.8 secs

     total energy              =   -1174.59736145 Ry
     Harris-Foulkes estimate   =   -1174.59736152 Ry
     estimated scf accuracy    <       0.00000016 Ry

     total magnetization       =    -0.00 Bohr mag/cell
     absolute magnetization    =     0.00 Bohr mag/cell

     iteration #  6     ecut=    36.00 Ry     beta= 0.70
     Davidson diagonalization with overlap
     ethr =  7.26E-10,  avg # of iterations =  1.9

     total cpu time spent up to now is      484.7 secs

     total energy              =   -1174.59736145 Ry
     Harris-Foulkes estimate   =   -1174.59736147 Ry
     estimated scf accuracy    <       0.00000003 Ry

     total magnetization       =    -0.00 Bohr mag/cell
     absolute magnetization    =     0.00 Bohr mag/cell

     iteration #  7     ecut=    36.00 Ry     beta= 0.70
     Davidson diagonalization with overlap
     ethr =  1.46E-10,  avg # of iterations =  2.2

     Magnetic moment per site:
     atom:    1    charge:    9.4988    magn:   -0.0000    constr:    0.0000
     atom:    2    charge:    9.4988    magn:   -0.0000    constr:    0.0000

     total cpu time spent up to now is      500.7 secs

     End of self-consistent calculation

     Number of k-points >= 100: set verbosity='high' to print the bands.

     the Fermi energy is    10.2515 ev

!    total energy              =   -1174.59736146 Ry
     Harris-Foulkes estimate   =   -1174.59736146 Ry
     estimated scf accuracy    <          3.9E-10 Ry

     total all-electron energy =    -48629.056635 Ry

     The total energy is the sum of the following terms:

     one-electron contribution =     -30.38760279 Ry
     hartree contribution      =      23.53164995 Ry
     xc contribution           =    -122.94274065 Ry
     ewald contribution        =    -116.75661230 Ry
     one-center paw contrib.   =    -928.04085451 Ry
     smearing contrib. (-TS)   =      -0.00120116 Ry

     total magnetization       =    -0.00 Bohr mag/cell
     absolute magnetization    =     0.00 Bohr mag/cell

     convergence has been achieved in   7 iterations

     Forces acting on atoms (cartesian axes, Ry/au):

     atom    1 type  1   force =    -0.00000000    0.00000000   -0.00000000
     atom    2 type  1   force =    -0.00000000   -0.00000000    0.00000000

     Total force =     0.000000     Total SCF correction =     0.000000


     Computing stress (Cartesian axis) and pressure

          total   stress  (Ry/bohr**3)                   (kbar)     P=   -0.47
   0.00000029   0.00000000   0.00000000          0.04      0.00      0.00
   0.00000000   0.00000029   0.00000000          0.00      0.04      0.00
  -0.00000000  -0.00000000  -0.00001014         -0.00     -0.00     -1.49


     number of scf cycles    =   5
     number of bfgs steps    =   4

     enthalpy old            =   -1174.5973521263 Ry
     enthalpy new            =   -1174.5973614588 Ry

     CASE: enthalpy_new < enthalpy_old

     new trust radius        =       0.0028059721 bohr
     new conv_thr            =       0.0000000100 Ry

     new unit-cell volume =    429.00442 a.u.^3 (    63.57190 Ang^3 )
     density =      8.48921 g/cm^3

CELL_PARAMETERS (alat=  6.78978600)
   1.004175804  -0.000000000  -0.000000000
  -0.502087902   0.869641756   0.000000000
  -0.000000000   0.000000000   1.569435138

ATOMIC_POSITIONS (crystal)
Dy       0.666666667   0.333333333   0.750000000
Dy       0.333333333   0.666666667   0.250000000



     Writing output data file pw.save/
     NEW-OLD atomic charge density approx. for the potential
     extrapolated charge   22.01528, renormalised to   22.00000

     total cpu time spent up to now is      512.8 secs

     Self-consistent Calculation

     iteration #  1     ecut=    36.00 Ry     beta= 0.70
     Davidson diagonalization with overlap
     ethr =  1.00E-06,  avg # of iterations =  2.0

     Threshold (ethr) on eigenvalues was too large:
     Diagonalizing with lowered threshold

     Davidson diagonalization with overlap
     ethr =  2.28E-08,  avg # of iterations =  1.7

     total cpu time spent up to now is      539.8 secs

     total energy              =   -1174.59735235 Ry
     Harris-Foulkes estimate   =   -1174.58845168 Ry
     estimated scf accuracy    <       0.00000528 Ry

     total magnetization       =    -0.00 Bohr mag/cell
     absolute magnetization    =     0.00 Bohr mag/cell

     iteration #  2     ecut=    36.00 Ry     beta= 0.70
     Davidson diagonalization with overlap
     ethr =  2.40E-08,  avg # of iterations =  3.0

     total cpu time spent up to now is      557.0 secs

     total energy              =   -1174.59736367 Ry
     Harris-Foulkes estimate   =   -1174.59736670 Ry
     estimated scf accuracy    <       0.00000612 Ry

     total magnetization       =    -0.00 Bohr mag/cell
     absolute magnetization    =     0.00 Bohr mag/cell

     iteration #  3     ecut=    36.00 Ry     beta= 0.70
     Davidson diagonalization with overlap
     ethr =  2.40E-08,  avg # of iterations =  1.7

     total cpu time spent up to now is      567.4 secs

     total energy              =   -1174.59736319 Ry
     Harris-Foulkes estimate   =   -1174.59736404 Ry
     estimated scf accuracy    <       0.00000131 Ry

     total magnetization       =    -0.00 Bohr mag/cell
     absolute magnetization    =     0.00 Bohr mag/cell

     iteration #  4     ecut=    36.00 Ry     beta= 0.70
     Davidson diagonalization with overlap
     ethr =  5.95E-09,  avg # of iterations =  2.0

     total cpu time spent up to now is      580.0 secs

     total energy              =   -1174.59736341 Ry
     Harris-Foulkes estimate   =   -1174.59736342 Ry
     estimated scf accuracy    <       0.00000004 Ry

     total magnetization       =    -0.00 Bohr mag/cell
     absolute magnetization    =     0.00 Bohr mag/cell

     iteration #  5     ecut=    36.00 Ry     beta= 0.70
     Davidson diagonalization with overlap
     ethr =  1.76E-10,  avg # of iterations =  1.9

     total cpu time spent up to now is      590.4 secs

     total energy              =   -1174.59736341 Ry
     Harris-Foulkes estimate   =   -1174.59736341 Ry
     estimated scf accuracy    <       0.00000001 Ry

     total magnetization       =    -0.00 Bohr mag/cell
     absolute magnetization    =     0.00 Bohr mag/cell

     iteration #  6     ecut=    36.00 Ry     beta= 0.70
     Davidson diagonalization with overlap
     ethr =  5.15E-11,  avg # of iterations =  2.0

     Magnetic moment per site:
     atom:    1    charge:    9.4991    magn:   -0.0000    constr:    0.0000
     atom:    2    charge:    9.4991    magn:   -0.0000    constr:    0.0000

     total cpu time spent up to now is      603.2 secs

     End of self-consistent calculation

     Number of k-points >= 100: set verbosity='high' to print the bands.

     the Fermi energy is    10.2424 ev

!    total energy              =   -1174.59736341 Ry
     Harris-Foulkes estimate   =   -1174.59736341 Ry
     estimated scf accuracy    <          1.9E-10 Ry

     total all-electron energy =    -48629.056637 Ry

     The total energy is the sum of the following terms:

     one-electron contribution =     -30.43015233 Ry
     hartree contribution      =      23.54441099 Ry
     xc contribution           =    -122.94185793 Ry
     ewald contribution        =    -116.72771503 Ry
     one-center paw contrib.   =    -928.04085121 Ry
     smearing contrib. (-TS)   =      -0.00119790 Ry

     total magnetization       =    -0.00 Bohr mag/cell
     absolute magnetization    =     0.00 Bohr mag/cell

     convergence has been achieved in   6 iterations

     Forces acting on atoms (cartesian axes, Ry/au):

     atom    1 type  1   force =     0.00000000    0.00000000    0.00000000
     atom    2 type  1   force =    -0.00000000    0.00000000   -0.00000000

     Total force =     0.000000     Total SCF correction =     0.000000


     Computing stress (Cartesian axis) and pressure

          total   stress  (Ry/bohr**3)                   (kbar)     P=   -0.68
  -0.00000269   0.00000000   0.00000000         -0.40      0.00      0.00
  -0.00000000  -0.00000269  -0.00000000         -0.00     -0.40     -0.00
   0.00000000  -0.00000000  -0.00000852          0.00     -0.00     -1.25


     number of scf cycles    =   6
     number of bfgs steps    =   5

     enthalpy old            =   -1174.5973614588 Ry
     enthalpy new            =   -1174.5973634118 Ry

     CASE: enthalpy_new < enthalpy_old

     new trust radius        =       0.0018761987 bohr
     new conv_thr            =       0.0000000100 Ry

     new unit-cell volume =    428.99081 a.u.^3 (    63.56988 Ang^3 )
     density =      8.48948 g/cm^3

CELL_PARAMETERS (alat=  6.78978600)
   1.004387355  -0.000000000  -0.000000000
  -0.502193678   0.869824965   0.000000000
  -0.000000000   0.000000000   1.568724315

ATOMIC_POSITIONS (crystal)
Dy       0.666666667   0.333333333   0.750000000
Dy       0.333333333   0.666666667   0.250000000



     Writing output data file pw.save/
     NEW-OLD atomic charge density approx. for the potential
     extrapolated charge   21.99930, renormalised to   22.00000

     total cpu time spent up to now is      616.4 secs

     Self-consistent Calculation

     iteration #  1     ecut=    36.00 Ry     beta= 0.70
     Davidson diagonalization with overlap
     ethr =  1.00E-06,  avg # of iterations =  2.0

     Threshold (ethr) on eigenvalues was too large:
     Diagonalizing with lowered threshold

     Davidson diagonalization with overlap
     ethr =  9.04E-11,  avg # of iterations =  4.2

     total cpu time spent up to now is      645.8 secs

     total energy              =   -1174.59736433 Ry
     Harris-Foulkes estimate   =   -1174.59776990 Ry
     estimated scf accuracy    <       0.00000002 Ry

     total magnetization       =    -0.00 Bohr mag/cell
     absolute magnetization    =     0.00 Bohr mag/cell

     iteration #  2     ecut=    36.00 Ry     beta= 0.70
     Davidson diagonalization with overlap
     ethr =  9.70E-11,  avg # of iterations =  3.0

     total cpu time spent up to now is      659.2 secs

     total energy              =   -1174.59736435 Ry
     Harris-Foulkes estimate   =   -1174.59736436 Ry
     estimated scf accuracy    <       0.00000001 Ry

     total magnetization       =    -0.00 Bohr mag/cell
     absolute magnetization    =     0.00 Bohr mag/cell

     iteration #  3     ecut=    36.00 Ry     beta= 0.70
     Davidson diagonalization with overlap
     ethr =  6.14E-11,  avg # of iterations =  1.8

     Magnetic moment per site:
     atom:    1    charge:    9.4991    magn:   -0.0000    constr:    0.0000
     atom:    2    charge:    9.4991    magn:   -0.0000    constr:    0.0000

     total cpu time spent up to now is      669.7 secs

     End of self-consistent calculation

     Number of k-points >= 100: set verbosity='high' to print the bands.

     the Fermi energy is    10.2425 ev

!    total energy              =   -1174.59736435 Ry
     Harris-Foulkes estimate   =   -1174.59736435 Ry
     estimated scf accuracy    <          1.9E-09 Ry

     total all-electron energy =    -48629.056638 Ry

     The total energy is the sum of the following terms:

     one-electron contribution =     -30.42981215 Ry
     hartree contribution      =      23.54434978 Ry
     xc contribution           =    -122.94184241 Ry
     ewald contribution        =    -116.72802782 Ry
     one-center paw contrib.   =    -928.04083555 Ry
     smearing contrib. (-TS)   =      -0.00119619 Ry

     total magnetization       =    -0.00 Bohr mag/cell
     absolute magnetization    =     0.00 Bohr mag/cell

     convergence has been achieved in   3 iterations

     Forces acting on atoms (cartesian axes, Ry/au):

     atom    1 type  1   force =     0.00000000    0.00000000    0.00000000
     atom    2 type  1   force =     0.00000000    0.00000000    0.00000000

     Total force =     0.000000     Total SCF correction =     0.000000


     Computing stress (Cartesian axis) and pressure

          total   stress  (Ry/bohr**3)                   (kbar)     P=   -0.69
  -0.00000359  -0.00000000   0.00000000         -0.53     -0.00      0.00
  -0.00000000  -0.00000359   0.00000000         -0.00     -0.53      0.00
   0.00000000  -0.00000000  -0.00000690          0.00     -0.00     -1.02


     number of scf cycles    =   7
     number of bfgs steps    =   6

     enthalpy old            =   -1174.5973634118 Ry
     enthalpy new            =   -1174.5973643486 Ry

     CASE: enthalpy_new < enthalpy_old

     new trust radius        =       0.0020647210 bohr
     new conv_thr            =       0.0000000100 Ry

     new unit-cell volume =    428.80593 a.u.^3 (    63.54248 Ang^3 )
     density =      8.49314 g/cm^3

CELL_PARAMETERS (alat=  6.78978600)
   1.004421245  -0.000000000  -0.000000000
  -0.502210623   0.869854315  -0.000000000
  -0.000000000   0.000000000   1.567942410

ATOMIC_POSITIONS (crystal)
Dy       0.666666667   0.333333333   0.750000000
Dy       0.333333333   0.666666667   0.250000000



     Writing output data file pw.save/
     NEW-OLD atomic charge density approx. for the potential
     extrapolated charge   21.99053, renormalised to   22.00000

     total cpu time spent up to now is      681.5 secs

     Self-consistent Calculation

     iteration #  1     ecut=    36.00 Ry     beta= 0.70
     Davidson diagonalization with overlap
     ethr =  1.00E-06,  avg # of iterations =  2.0

     Threshold (ethr) on eigenvalues was too large:
     Diagonalizing with lowered threshold

     Davidson diagonalization with overlap
     ethr =  9.24E-09,  avg # of iterations =  1.4

     total cpu time spent up to now is      703.8 secs

     total energy              =   -1174.59736122 Ry
     Harris-Foulkes estimate   =   -1174.60287973 Ry
     estimated scf accuracy    <       0.00000209 Ry

     total magnetization       =    -0.00 Bohr mag/cell
     absolute magnetization    =     0.00 Bohr mag/cell

     iteration #  2     ecut=    36.00 Ry     beta= 0.70
     Davidson diagonalization with overlap
     ethr =  9.48E-09,  avg # of iterations =  3.0

     total cpu time spent up to now is      722.1 secs

     total energy              =   -1174.59736556 Ry
     Harris-Foulkes estimate   =   -1174.59736679 Ry
     estimated scf accuracy    <       0.00000237 Ry

     total magnetization       =    -0.00 Bohr mag/cell
     absolute magnetization    =     0.00 Bohr mag/cell

     iteration #  3     ecut=    36.00 Ry     beta= 0.70
     Davidson diagonalization with overlap
     ethr =  9.48E-09,  avg # of iterations =  1.7

     total cpu time spent up to now is      732.3 secs

     total energy              =   -1174.59736540 Ry
     Harris-Foulkes estimate   =   -1174.59736571 Ry
     estimated scf accuracy    <       0.00000050 Ry

     total magnetization       =    -0.00 Bohr mag/cell
     absolute magnetization    =     0.00 Bohr mag/cell

     iteration #  4     ecut=    36.00 Ry     beta= 0.70
     Davidson diagonalization with overlap
     ethr =  2.28E-09,  avg # of iterations =  2.0

     total cpu time spent up to now is      743.4 secs

     total energy              =   -1174.59736543 Ry
     Harris-Foulkes estimate   =   -1174.59736546 Ry
     estimated scf accuracy    <       0.00000006 Ry

     total magnetization       =    -0.00 Bohr mag/cell
     absolute magnetization    =     0.00 Bohr mag/cell

     iteration #  5     ecut=    36.00 Ry     beta= 0.70
     Davidson diagonalization with overlap
     ethr =  2.68E-10,  avg # of iterations =  1.1

     total cpu time spent up to now is      752.2 secs

     total energy              =   -1174.59736542 Ry
     Harris-Foulkes estimate   =   -1174.59736544 Ry
     estimated scf accuracy    <       0.00000002 Ry

     total magnetization       =    -0.00 Bohr mag/cell
     absolute magnetization    =     0.00 Bohr mag/cell

     iteration #  6     ecut=    36.00 Ry     beta= 0.70
     Davidson diagonalization with overlap
     ethr =  8.29E-11,  avg # of iterations =  2.0

     Magnetic moment per site:
     atom:    1    charge:    9.4989    magn:   -0.0000    constr:    0.0000
     atom:    2    charge:    9.4989    magn:   -0.0000    constr:    0.0000

     total cpu time spent up to now is      762.4 secs

     End of self-consistent calculation

     Number of k-points >= 100: set verbosity='high' to print the bands.

     the Fermi energy is    10.2475 ev

!    total energy              =   -1174.59736542 Ry
     Harris-Foulkes estimate   =   -1174.59736542 Ry
     estimated scf accuracy    <          2.1E-09 Ry

     total all-electron energy =    -48629.056639 Ry

     The total energy is the sum of the following terms:

     one-electron contribution =     -30.40664823 Ry
     hartree contribution      =      23.53782839 Ry
     xc contribution           =    -122.94244578 Ry
     ewald contribution        =    -116.74405397 Ry
     one-center paw contrib.   =    -928.04085105 Ry
     smearing contrib. (-TS)   =      -0.00119478 Ry

     total magnetization       =    -0.00 Bohr mag/cell
     absolute magnetization    =     0.00 Bohr mag/cell

     convergence has been achieved in   6 iterations

     Forces acting on atoms (cartesian axes, Ry/au):

     atom    1 type  1   force =    -0.00000000   -0.00000000    0.00000000
     atom    2 type  1   force =     0.00000000    0.00000000   -0.00000000

     Total force =     0.000000     Total SCF correction =     0.000000


     Computing stress (Cartesian axis) and pressure

          total   stress  (Ry/bohr**3)                   (kbar)     P=   -0.51
  -0.00000302   0.00000000  -0.00000000         -0.44      0.00     -0.00
   0.00000000  -0.00000302   0.00000000          0.00     -0.44      0.00
  -0.00000000   0.00000000  -0.00000430         -0.00      0.00     -0.63


     number of scf cycles    =   8
     number of bfgs steps    =   7

     enthalpy old            =   -1174.5973643486 Ry
     enthalpy new            =   -1174.5973654188 Ry

     CASE: enthalpy_new < enthalpy_old

     new trust radius        =       0.0027989421 bohr
     new conv_thr            =       0.0000000100 Ry

     new unit-cell volume =    428.37861 a.u.^3 (    63.47916 Ang^3 )
     density =      8.50161 g/cm^3

CELL_PARAMETERS (alat=  6.78978600)
   1.004260064  -0.000000000  -0.000000000
  -0.502130032   0.869714727  -0.000000000
  -0.000000000   0.000000000   1.566882757

ATOMIC_POSITIONS (crystal)
Dy       0.666666667   0.333333333   0.750000000
Dy       0.333333333   0.666666667   0.250000000



     Writing output data file pw.save/
     NEW-OLD atomic charge density approx. for the potential
     extrapolated charge   21.97809, renormalised to   22.00000

     total cpu time spent up to now is      772.5 secs

     Self-consistent Calculation

     iteration #  1     ecut=    36.00 Ry     beta= 0.70
     Davidson diagonalization with overlap
     ethr =  1.00E-06,  avg # of iterations =  2.0

     Threshold (ethr) on eigenvalues was too large:
     Diagonalizing with lowered threshold

     Davidson diagonalization with overlap
     ethr =  5.00E-08,  avg # of iterations =  1.0

     total cpu time spent up to now is      791.5 secs

     total energy              =   -1174.59734347 Ry
     Harris-Foulkes estimate   =   -1174.61008843 Ry
     estimated scf accuracy    <       0.00001108 Ry

     total magnetization       =    -0.00 Bohr mag/cell
     absolute magnetization    =     0.00 Bohr mag/cell

     iteration #  2     ecut=    36.00 Ry     beta= 0.70
     Davidson diagonalization with overlap
     ethr =  5.04E-08,  avg # of iterations =  3.0

     total cpu time spent up to now is      804.2 secs

     total energy              =   -1174.59736695 Ry
     Harris-Foulkes estimate   =   -1174.59737344 Ry
     estimated scf accuracy    <       0.00001281 Ry

     total magnetization       =    -0.00 Bohr mag/cell
     absolute magnetization    =     0.00 Bohr mag/cell

     iteration #  3     ecut=    36.00 Ry     beta= 0.70
     Davidson diagonalization with overlap
     ethr =  5.04E-08,  avg # of iterations =  1.7

     total cpu time spent up to now is      813.4 secs

     total energy              =   -1174.59736622 Ry
     Harris-Foulkes estimate   =   -1174.59736773 Ry
     estimated scf accuracy    <       0.00000274 Ry

     total magnetization       =    -0.00 Bohr mag/cell
     absolute magnetization    =     0.00 Bohr mag/cell

     iteration #  4     ecut=    36.00 Ry     beta= 0.70
     Davidson diagonalization with overlap
     ethr =  1.24E-08,  avg # of iterations =  1.9

     total cpu time spent up to now is      824.2 secs

     total energy              =   -1174.59736632 Ry
     Harris-Foulkes estimate   =   -1174.59736650 Ry
     estimated scf accuracy    <       0.00000042 Ry

     total magnetization       =    -0.00 Bohr mag/cell
     absolute magnetization    =     0.00 Bohr mag/cell

     iteration #  5     ecut=    36.00 Ry     beta= 0.70
     Davidson diagonalization with overlap
     ethr =  1.92E-09,  avg # of iterations =  1.2

     total cpu time spent up to now is      833.8 secs

     total energy              =   -1174.59736633 Ry
     Harris-Foulkes estimate   =   -1174.59736634 Ry
     estimated scf accuracy    <       0.00000015 Ry

     total magnetization       =    -0.00 Bohr mag/cell
     absolute magnetization    =     0.00 Bohr mag/cell

     iteration #  6     ecut=    36.00 Ry     beta= 0.70
     Davidson diagonalization with overlap
     ethr =  6.94E-10,  avg # of iterations =  1.0

     total cpu time spent up to now is      842.5 secs

     total energy              =   -1174.59736624 Ry
     Harris-Foulkes estimate   =   -1174.59736633 Ry
     estimated scf accuracy    <       0.00000014 Ry

     total magnetization       =    -0.00 Bohr mag/cell
     absolute magnetization    =     0.00 Bohr mag/cell

     iteration #  7     ecut=    36.00 Ry     beta= 0.70
     Davidson diagonalization with overlap
     ethr =  6.22E-10,  avg # of iterations =  2.0

     total cpu time spent up to now is      853.2 secs

     total energy              =   -1174.59736624 Ry
     Harris-Foulkes estimate   =   -1174.59736625 Ry
     estimated scf accuracy    <       0.00000001 Ry

     total magnetization       =    -0.00 Bohr mag/cell
     absolute magnetization    =     0.00 Bohr mag/cell

     iteration #  8     ecut=    36.00 Ry     beta= 0.70
     Davidson diagonalization with overlap
     ethr =  5.18E-11,  avg # of iterations =  2.2

     Magnetic moment per site:
     atom:    1    charge:    9.4985    magn:   -0.0000    constr:    0.0000
     atom:    2    charge:    9.4985    magn:   -0.0000    constr:    0.0000

     total cpu time spent up to now is      866.0 secs

     End of self-consistent calculation

     Number of k-points >= 100: set verbosity='high' to print the bands.

     the Fermi energy is    10.2592 ev

!    total energy              =   -1174.59736624 Ry
     Harris-Foulkes estimate   =   -1174.59736624 Ry
     estimated scf accuracy    <          2.1E-10 Ry

     total all-electron energy =    -48629.056640 Ry

     The total energy is the sum of the following terms:

     one-electron contribution =     -30.35149326 Ry
     hartree contribution      =      23.52226267 Ry
     xc contribution           =    -122.94390880 Ry
     ewald contribution        =    -116.78212712 Ry
     one-center paw contrib.   =    -928.04090636 Ry
     smearing contrib. (-TS)   =      -0.00119337 Ry

     total magnetization       =    -0.00 Bohr mag/cell
     absolute magnetization    =     0.00 Bohr mag/cell

     convergence has been achieved in   8 iterations

     Forces acting on atoms (cartesian axes, Ry/au):

     atom    1 type  1   force =    -0.00000000   -0.00000000    0.00000000
     atom    2 type  1   force =     0.00000000    0.00000000   -0.00000000

     Total force =     0.000000     Total SCF correction =     0.000000


     Computing stress (Cartesian axis) and pressure

          total   stress  (Ry/bohr**3)                   (kbar)     P=   -0.06
  -0.00000067  -0.00000000   0.00000000         -0.10     -0.00      0.00
  -0.00000000  -0.00000067   0.00000000         -0.00     -0.10      0.00
  -0.00000000   0.00000000   0.00000014         -0.00      0.00      0.02


     bfgs converged in   9 scf cycles and   8 bfgs steps
     (criteria: energy <  1.0E-04 Ry, force <  1.0E-03Ry/Bohr, cell <  5.0E-01kbar)

     End of BFGS Geometry Optimization

     Final enthalpy =   -1174.5973662406 Ry
Begin final coordinates
     new unit-cell volume =    428.37861 a.u.^3 (    63.47916 Ang^3 )
     density =      8.50161 g/cm^3

CELL_PARAMETERS (alat=  6.78978600)
   1.004260064  -0.000000000  -0.000000000
  -0.502130032   0.869714727  -0.000000000
  -0.000000000   0.000000000   1.566882757

ATOMIC_POSITIONS (crystal)
Dy       0.666666667   0.333333333   0.750000000
Dy       0.333333333   0.666666667   0.250000000
End final coordinates



     Writing output data file pw.save/

     A final scf calculation at the relaxed structure.
     The G-vectors are recalculated for the final unit cell
     Results may differ from those at the preceding step.

     Parallelization info
     --------------------
     sticks:   dense  smooth     PW     G-vecs:    dense   smooth      PW
     Min         423     230     75                15615     6203    1165
     Max         424     233     76                15622     6204    1168
     Sum         847     463    151                31237    12407    2333



     bravais-lattice index     =            0
     lattice parameter (alat)  =       6.7898  a.u.
     unit-cell volume          =     428.3786 (a.u.)^3
     number of atoms/cell      =            2
     number of atomic types    =            1
     number of electrons       =        22.00
     number of Kohn-Sham states=           15
     kinetic-energy cutoff     =      36.0000  Ry
     charge density cutoff     =     265.0000  Ry
     convergence threshold     =      1.0E-08
     mixing beta               =       0.7000
     number of iterations used =            8  plain     mixing
     Exchange-correlation      = SLA PW PBX PBC ( 1  4  3  4 0 0)

     celldm(1)=   6.789786  celldm(2)=   0.000000  celldm(3)=   0.000000
     celldm(4)=   0.000000  celldm(5)=   0.000000  celldm(6)=   0.000000

     crystal axes: (cart. coord. in units of alat)
               a(1) = (   1.004260  -0.000000  -0.000000 )  
               a(2) = (  -0.502130   0.869715  -0.000000 )  
               a(3) = (  -0.000000   0.000000   1.566883 )  

     reciprocal axes: (cart. coord. in units 2 pi/alat)
               b(1) = (  0.995758  0.574901 -0.000000 )  
               b(2) = (  0.000000  1.149802 -0.000000 )  
               b(3) = (  0.000000  0.000000  0.638210 )  


     PseudoPot. # 1 for Dy read from file:
     ./potentials/Dy.pbe-spdn-kjpaw_psl.1.0.0.UPF
     MD5 check sum: dcf39381811a57a3d834ca4a7f58332c
     Pseudo is Projector augmented-wave + core cor, Zval = 11.0
     Generated using "atomic" code by A. Dal Corso v.6.2.2
     Shape of augmentation charge: PSQ
     Using radial grid of 1265 points,  6 beta functions with: 
                l(1) =   0
                l(2) =   0
                l(3) =   1
                l(4) =   1
                l(5) =   2
                l(6) =   2
     Q(r) pseudized with 0 coefficients 


     atomic species   valence    mass     pseudopotential
        Dy            11.00   162.50000     Dy( 1.00)

     Starting magnetic structure 
     atomic species   magnetization
        Dy          -0.000

     24 Sym. Ops., with inversion, found (12 have fractional translation)



   Cartesian axes

     site n.     atom                  positions (alat units)
         1           Dy  tau(   1) = (   0.5021300   0.2899049   1.1751621  )
         2           Dy  tau(   2) = (  -0.0000000   0.5798098   0.3917207  )

     number of k points=    90  Methfessel-Paxton smearing, width (Ry)=  0.0200
                       cart. coord. in units 2pi/alat
        k(    1) = (   0.0497879   0.0862352   0.0531842), wk =   0.0066667
        k(    2) = (   0.0497879   0.0862352   0.1595525), wk =   0.0066667
        k(    3) = (   0.0497879   0.0862352   0.2659208), wk =   0.0066667
        k(    4) = (   0.0497879   0.2012154   0.0531842), wk =   0.0133333
        k(    5) = (   0.0497879   0.2012154   0.1595525), wk =   0.0133333
        k(    6) = (   0.0497879   0.2012154   0.2659208), wk =   0.0133333
        k(    7) = (   0.0497879   0.3161956   0.0531842), wk =   0.0133333
        k(    8) = (   0.0497879   0.3161956   0.1595525), wk =   0.0133333
        k(    9) = (   0.0497879   0.3161956   0.2659208), wk =   0.0133333
        k(   10) = (   0.0497879   0.4311759   0.0531842), wk =   0.0133333
        k(   11) = (   0.0497879   0.4311759   0.1595525), wk =   0.0133333
        k(   12) = (   0.0497879   0.4311759   0.2659208), wk =   0.0133333
        k(   13) = (   0.0497879   0.5461561   0.0531842), wk =   0.0133333
        k(   14) = (   0.0497879   0.5461561   0.1595525), wk =   0.0133333
        k(   15) = (   0.0497879   0.5461561   0.2659208), wk =   0.0133333
        k(   16) = (   0.0497879  -0.4886660   0.0531842), wk =   0.0133333
        k(   17) = (   0.0497879  -0.4886660   0.1595525), wk =   0.0133333
        k(   18) = (   0.0497879  -0.4886660   0.2659208), wk =   0.0133333
        k(   19) = (   0.0497879  -0.3736857   0.0531842), wk =   0.0133333
        k(   20) = (   0.0497879  -0.3736857   0.1595525), wk =   0.0133333
        k(   21) = (   0.0497879  -0.3736857   0.2659208), wk =   0.0133333
        k(   22) = (   0.0497879  -0.2587055   0.0531842), wk =   0.0133333
        k(   23) = (   0.0497879  -0.2587055   0.1595525), wk =   0.0133333
        k(   24) = (   0.0497879  -0.2587055   0.2659208), wk =   0.0133333
        k(   25) = (   0.0497879  -0.1437253   0.0531842), wk =   0.0133333
        k(   26) = (   0.0497879  -0.1437253   0.1595525), wk =   0.0133333
        k(   27) = (   0.0497879  -0.1437253   0.2659208), wk =   0.0133333
        k(   28) = (   0.0497879  -0.0287451   0.0531842), wk =   0.0066667
        k(   29) = (   0.0497879  -0.0287451   0.1595525), wk =   0.0066667
        k(   30) = (   0.0497879  -0.0287451   0.2659208), wk =   0.0066667
        k(   31) = (   0.1493637   0.2587055   0.0531842), wk =   0.0066667
        k(   32) = (   0.1493637   0.2587055   0.1595525), wk =   0.0066667
        k(   33) = (   0.1493637   0.2587055   0.2659208), wk =   0.0066667
        k(   34) = (   0.1493637   0.3736857   0.0531842), wk =   0.0133333
        k(   35) = (   0.1493637   0.3736857   0.1595525), wk =   0.0133333
        k(   36) = (   0.1493637   0.3736857   0.2659208), wk =   0.0133333
        k(   37) = (   0.1493637   0.4886660   0.0531842), wk =   0.0133333
        k(   38) = (   0.1493637   0.4886660   0.1595525), wk =   0.0133333
        k(   39) = (   0.1493637   0.4886660   0.2659208), wk =   0.0133333
        k(   40) = (   0.1493637   0.6036462   0.0531842), wk =   0.0133333
        k(   41) = (   0.1493637   0.6036462   0.1595525), wk =   0.0133333
        k(   42) = (   0.1493637   0.6036462   0.2659208), wk =   0.0133333
        k(   43) = (   0.1493637  -0.4311759   0.0531842), wk =   0.0133333
        k(   44) = (   0.1493637  -0.4311759   0.1595525), wk =   0.0133333
        k(   45) = (   0.1493637  -0.4311759   0.2659208), wk =   0.0133333
        k(   46) = (   0.1493637  -0.3161956   0.0531842), wk =   0.0133333
        k(   47) = (   0.1493637  -0.3161956   0.1595525), wk =   0.0133333
        k(   48) = (   0.1493637  -0.3161956   0.2659208), wk =   0.0133333
        k(   49) = (   0.1493637  -0.2012154   0.0531842), wk =   0.0133333
        k(   50) = (   0.1493637  -0.2012154   0.1595525), wk =   0.0133333
        k(   51) = (   0.1493637  -0.2012154   0.2659208), wk =   0.0133333
        k(   52) = (   0.1493637  -0.0862352   0.0531842), wk =   0.0066667
        k(   53) = (   0.1493637  -0.0862352   0.1595525), wk =   0.0066667
        k(   54) = (   0.1493637  -0.0862352   0.2659208), wk =   0.0066667
        k(   55) = (   0.2489395   0.4311759   0.0531842), wk =   0.0066667
        k(   56) = (   0.2489395   0.4311759   0.1595525), wk =   0.0066667
        k(   57) = (   0.2489395   0.4311759   0.2659208), wk =   0.0066667
        k(   58) = (   0.2489395   0.5461561   0.0531842), wk =   0.0133333
        k(   59) = (   0.2489395   0.5461561   0.1595525), wk =   0.0133333
        k(   60) = (   0.2489395   0.5461561   0.2659208), wk =   0.0133333
        k(   61) = (   0.2489395   0.6611363   0.0531842), wk =   0.0133333
        k(   62) = (   0.2489395   0.6611363   0.1595525), wk =   0.0133333
        k(   63) = (   0.2489395   0.6611363   0.2659208), wk =   0.0133333
        k(   64) = (   0.2489395  -0.3736857   0.0531842), wk =   0.0133333
        k(   65) = (   0.2489395  -0.3736857   0.1595525), wk =   0.0133333
        k(   66) = (   0.2489395  -0.3736857   0.2659208), wk =   0.0133333
        k(   67) = (   0.2489395  -0.2587055   0.0531842), wk =   0.0133333
        k(   68) = (   0.2489395  -0.2587055   0.1595525), wk =   0.0133333
        k(   69) = (   0.2489395  -0.2587055   0.2659208), wk =   0.0133333
        k(   70) = (   0.2489395  -0.1437253   0.0531842), wk =   0.0066667
        k(   71) = (   0.2489395  -0.1437253   0.1595525), wk =   0.0066667
        k(   72) = (   0.2489395  -0.1437253   0.2659208), wk =   0.0066667
        k(   73) = (   0.3485153   0.6036462   0.0531842), wk =   0.0066667
        k(   74) = (   0.3485153   0.6036462   0.1595525), wk =   0.0066667
        k(   75) = (   0.3485153   0.6036462   0.2659208), wk =   0.0066667
        k(   76) = (   0.3485153   0.7186264   0.0531842), wk =   0.0133333
        k(   77) = (   0.3485153   0.7186264   0.1595525), wk =   0.0133333
        k(   78) = (   0.3485153   0.7186264   0.2659208), wk =   0.0133333
        k(   79) = (   0.3485153  -0.3161956   0.0531842), wk =   0.0133333
        k(   80) = (   0.3485153  -0.3161956   0.1595525), wk =   0.0133333
        k(   81) = (   0.3485153  -0.3161956   0.2659208), wk =   0.0133333
        k(   82) = (   0.3485153  -0.2012154   0.0531842), wk =   0.0066667
        k(   83) = (   0.3485153  -0.2012154   0.1595525), wk =   0.0066667
        k(   84) = (   0.3485153  -0.2012154   0.2659208), wk =   0.0066667
        k(   85) = (   0.4480911   0.7761166   0.0531842), wk =   0.0066667
        k(   86) = (   0.4480911   0.7761166   0.1595525), wk =   0.0066667
        k(   87) = (   0.4480911   0.7761166   0.2659208), wk =   0.0066667
        k(   88) = (   0.4480911  -0.2587055   0.0531842), wk =   0.0066667
        k(   89) = (   0.4480911  -0.2587055   0.1595525), wk =   0.0066667
        k(   90) = (   0.4480911  -0.2587055   0.2659208), wk =   0.0066667

     Dense  grid:    31237 G-vectors     FFT dimensions: (  36,  36,  60)

     Smooth grid:    12407 G-vectors     FFT dimensions: (  27,  27,  48)

     Estimated max dynamical RAM per process >      99.32 MB

     Estimated total dynamical RAM >     198.63 MB
     Generating pointlists ...

     Initial potential from superposition of free atoms

     starting charge   21.96168, renormalised to   22.00000
     Starting wfcs are   26 randomized atomic wfcs
     Checking if some PAW data can be deallocated... 

     total cpu time spent up to now is      881.7 secs

     Self-consistent Calculation

     iteration #  1     ecut=    36.00 Ry     beta= 0.70
     Davidson diagonalization with overlap
     ethr =  1.00E-06,  avg # of iterations =  8.2

     total cpu time spent up to now is      914.2 secs

     total energy              =   -1174.59415162 Ry
     Harris-Foulkes estimate   =   -1174.60448822 Ry
     estimated scf accuracy    <       0.01857115 Ry

     total magnetization       =    -0.00 Bohr mag/cell
     absolute magnetization    =     0.00 Bohr mag/cell

     iteration #  2     ecut=    36.00 Ry     beta= 0.70
     Davidson diagonalization with overlap
     ethr =  8.44E-05,  avg # of iterations =  2.0

     total cpu time spent up to now is      928.1 secs

     total energy              =   -1174.59731536 Ry
     Harris-Foulkes estimate   =   -1174.59743233 Ry
     estimated scf accuracy    <       0.00052289 Ry

     total magnetization       =    -0.00 Bohr mag/cell
     absolute magnetization    =     0.00 Bohr mag/cell

     iteration #  3     ecut=    36.00 Ry     beta= 0.70
     Davidson diagonalization with overlap
     ethr =  2.38E-06,  avg # of iterations =  2.0

     total cpu time spent up to now is      940.9 secs

     total energy              =   -1174.59737021 Ry
     Harris-Foulkes estimate   =   -1174.59736784 Ry
     estimated scf accuracy    <       0.00003714 Ry

     total magnetization       =    -0.00 Bohr mag/cell
     absolute magnetization    =     0.00 Bohr mag/cell

     iteration #  4     ecut=    36.00 Ry     beta= 0.70
     Davidson diagonalization with overlap
     ethr =  1.69E-07,  avg # of iterations =  2.0

     total cpu time spent up to now is      954.1 secs

     total energy              =   -1174.59737373 Ry
     Harris-Foulkes estimate   =   -1174.59737387 Ry
     estimated scf accuracy    <       0.00000038 Ry

     total magnetization       =    -0.00 Bohr mag/cell
     absolute magnetization    =     0.00 Bohr mag/cell

     iteration #  5     ecut=    36.00 Ry     beta= 0.70
     Davidson diagonalization with overlap
     ethr =  1.74E-09,  avg # of iterations =  3.8

     total cpu time spent up to now is      971.1 secs

     total energy              =   -1174.59737390 Ry
     Harris-Foulkes estimate   =   -1174.59737391 Ry
     estimated scf accuracy    <       0.00000002 Ry

     total magnetization       =    -0.00 Bohr mag/cell
     absolute magnetization    =     0.00 Bohr mag/cell

     iteration #  6     ecut=    36.00 Ry     beta= 0.70
     Davidson diagonalization with overlap
     ethr =  8.36E-11,  avg # of iterations =  2.2

     Magnetic moment per site:
     atom:    1    charge:    9.4909    magn:   -0.0000    constr:    0.0000
     atom:    2    charge:    9.4909    magn:   -0.0000    constr:    0.0000

     total cpu time spent up to now is      986.8 secs

     End of self-consistent calculation

     Number of k-points >= 100: set verbosity='high' to print the bands.

     the Fermi energy is    10.2592 ev

!    total energy              =   -1174.59737390 Ry
     Harris-Foulkes estimate   =   -1174.59737390 Ry
     estimated scf accuracy    <          8.4E-10 Ry

     total all-electron energy =    -48629.056648 Ry

     The total energy is the sum of the following terms:

     one-electron contribution =     -30.35159133 Ry
     hartree contribution      =      23.52229431 Ry
     xc contribution           =    -122.94385036 Ry
     ewald contribution        =    -116.78212712 Ry
     one-center paw contrib.   =    -928.04090605 Ry
     smearing contrib. (-TS)   =      -0.00119337 Ry

     total magnetization       =    -0.00 Bohr mag/cell
     absolute magnetization    =     0.00 Bohr mag/cell

     convergence has been achieved in   6 iterations

     Forces acting on atoms (cartesian axes, Ry/au):

     atom    1 type  1   force =     0.00000000    0.00000000   -0.00000000
     atom    2 type  1   force =    -0.00000000   -0.00000000    0.00000000

     Total force =     0.000000     Total SCF correction =     0.000000


     Computing stress (Cartesian axis) and pressure

          total   stress  (Ry/bohr**3)                   (kbar)     P=   -0.08
  -0.00000096   0.00000000  -0.00000000         -0.14      0.00     -0.00
  -0.00000000  -0.00000096   0.00000000         -0.00     -0.14      0.00
  -0.00000000   0.00000000   0.00000028         -0.00      0.00      0.04


     Writing output data file pw.save/

     init_run     :     17.98s CPU     16.64s WALL (       2 calls)
     electrons    :    902.05s CPU    877.31s WALL (      10 calls)
     update_pot   :     21.05s CPU     22.68s WALL (       8 calls)
     forces       :     14.14s CPU     15.62s WALL (      10 calls)
     stress       :     44.28s CPU     47.64s WALL (      10 calls)

     Called by init_run:
     wfcinit      :     13.23s CPU     11.76s WALL (       2 calls)
     potinit      :      2.06s CPU      2.11s WALL (       2 calls)
     hinit0       :      2.30s CPU      2.24s WALL (       2 calls)

     Called by electrons:
     c_bands      :    743.41s CPU    700.11s WALL (      71 calls)
     sum_band     :     83.88s CPU     90.71s WALL (      71 calls)
     v_of_rho     :     10.88s CPU     10.93s WALL (      74 calls)
     newd         :      5.75s CPU     11.62s WALL (      74 calls)
     PAW_pot      :     73.86s CPU     81.70s WALL (      82 calls)
     mix_rho      :      0.78s CPU      0.66s WALL (      71 calls)

     Called by c_bands:
     init_us_2    :     16.83s CPU     14.95s WALL (   30960 calls)
     cegterg      :    693.72s CPU    659.61s WALL (   12780 calls)

     Called by sum_band:
     sum_band:bec :      0.33s CPU      0.30s WALL (   14220 calls)
     addusdens    :     14.39s CPU     15.63s WALL (      71 calls)

     Called by *egterg:
     h_psi        :    524.80s CPU    460.39s WALL (   43604 calls)
     s_psi        :     17.88s CPU     14.38s WALL (   43604 calls)
     g_psi        :      3.06s CPU      2.71s WALL (   30464 calls)
     cdiaghg      :     90.11s CPU    133.04s WALL (   40544 calls)

     Called by h_psi:
     h_psi:pot    :    522.53s CPU    458.29s WALL (   43604 calls)
     h_psi:calbec :     20.56s CPU     18.07s WALL (   43604 calls)
     vloc_psi     :    482.69s CPU    423.70s WALL (   43604 calls)
     add_vuspsi   :     18.53s CPU     15.26s WALL (   43604 calls)

     General routines
     calbec       :     28.28s CPU     26.08s WALL (   66824 calls)
     fft          :      4.20s CPU      3.95s WALL (    2252 calls)
     ffts         :      0.11s CPU      0.12s WALL (     290 calls)
     fftw         :    474.84s CPU    425.83s WALL ( 1219774 calls)
     interpolate  :      0.36s CPU      0.37s WALL (     148 calls)

     Parallel routines
     fft_scatt_xy :     77.86s CPU     70.65s WALL ( 1222316 calls)
     fft_scatt_yz :     87.23s CPU     87.47s WALL ( 1222316 calls)

     PWSCF        :  16m49.55s CPU  16m32.29s WALL


   This run was terminated on:  19:37:51   6Nov2020            

=------------------------------------------------------------------------------=
   JOB DONE.
=------------------------------------------------------------------------------=
