--------------------------------------------------------------------------
WARNING: Linux kernel CMA support was requested via the
btl_vader_single_copy_mechanism MCA variable, but CMA support is
not available due to restrictive ptrace settings.

The vader shared memory BTL will fall back on another single-copy
mechanism if one is available. This may result in lower performance.

  Local host: DESKTOP-12SE80T
--------------------------------------------------------------------------

     Program PWSCF v.6.4.1 starts on  6Nov2020 at 10:57:23 

     This program is part of the open-source Quantum ESPRESSO suite
     for quantum simulation of materials; please cite
         "P. Giannozzi et al., J. Phys.:Condens. Matter 21 395502 (2009);
         "P. Giannozzi et al., J. Phys.:Condens. Matter 29 465901 (2017);
          URL http://www.quantum-espresso.org", 
     in publications or presentations arising from this work. More details at
     http://www.quantum-espresso.org/quote

     Parallel version (MPI), running on     2 processors

     MPI processes distributed on     1 nodes
     R & G space division:  proc/nbgrp/npool/nimage =       2
     Waiting for input...
     Reading input from standard input

     Current dimensions of program PWSCF are:
     Max number of different atomic species (ntypx) = 10
     Max number of k-points (npk) =  40000
     Max angular momentum in pseudopotentials (lmaxx) =  3
               file Sc.pbe-spn-kjpaw_psl.1.0.0.UPF: wavefunction(s)  3S 3P 3D renormalized

     Subspace diagonalization in iterative solution of the eigenvalue problem:
     a serial algorithm will be used

     Message from routine setup:
     DEPRECATED: symmetry with ibrav=0, use correct ibrav instead

     Parallelization info
     --------------------
     sticks:   dense  smooth     PW     G-vecs:    dense   smooth      PW
     Min         536     273     81                22660     7975    1433
     Max         539     274     82                22661     7976    1442
     Sum        1075     547    163                45321    15951    2875



     bravais-lattice index     =            0
     lattice parameter (alat)  =       6.2714  a.u.
     unit-cell volume          =     333.2873 (a.u.)^3
     number of atoms/cell      =            2
     number of atomic types    =            1
     number of electrons       =        22.00
     number of Kohn-Sham states=           15
     kinetic-energy cutoff     =      50.0000  Ry
     charge density cutoff     =     402.0000  Ry
     convergence threshold     =      1.0E-06
     mixing beta               =       0.7000
     number of iterations used =            8  plain     mixing
     Exchange-correlation      = SLA PW PBX PBC ( 1  4  3  4 0 0)
     nstep                     =           50


     celldm(1)=   6.271359  celldm(2)=   0.000000  celldm(3)=   0.000000
     celldm(4)=   0.000000  celldm(5)=   0.000000  celldm(6)=   0.000000

     crystal axes: (cart. coord. in units of alat)
               a(1) = (   1.000000   0.000000   0.000000 )  
               a(2) = (  -0.500000   0.866025   0.000000 )  
               a(3) = (   0.000000   0.000000   1.560282 )  

     reciprocal axes: (cart. coord. in units 2 pi/alat)
               b(1) = (  1.000000  0.577350 -0.000000 )  
               b(2) = (  0.000000  1.154701  0.000000 )  
               b(3) = (  0.000000 -0.000000  0.640910 )  


     PseudoPot. # 1 for Sc read from file:
     ./potentials/Sc.pbe-spn-kjpaw_psl.1.0.0.UPF
     MD5 check sum: d5ac433e587a0148d610ca85a1be5559
     Pseudo is Projector augmented-wave + core cor, Zval = 11.0
     Generated using "atomic" code by A. Dal Corso v.6.2.2
     Shape of augmentation charge: PSQ
     Using radial grid of 1173 points,  6 beta functions with: 
                l(1) =   0
                l(2) =   0
                l(3) =   1
                l(4) =   1
                l(5) =   2
                l(6) =   2
     Q(r) pseudized with 0 coefficients 


     atomic species   valence    mass     pseudopotential
        Sc            11.00    44.95500     Sc( 1.00)

     Starting magnetic structure 
     atomic species   magnetization
        Sc           1.000

     24 Sym. Ops., with inversion, found (12 have fractional translation)



   Cartesian axes

     site n.     atom                  positions (alat units)
         1           Sc  tau(   1) = (   0.5000000   0.2886751   0.3900706  )
         2           Sc  tau(   2) = (  -0.0000000   0.5773503   1.1702117  )

     number of k points=    90  Methfessel-Paxton smearing, width (Ry)=  0.0200
                       cart. coord. in units 2pi/alat
        k(    1) = (   0.0500000   0.0866025   0.0534091), wk =   0.0066667
        k(    2) = (   0.0500000   0.0866025   0.1602274), wk =   0.0066667
        k(    3) = (   0.0500000   0.0866025   0.2670457), wk =   0.0066667
        k(    4) = (   0.0500000   0.2020726   0.0534091), wk =   0.0133333
        k(    5) = (   0.0500000   0.2020726   0.1602274), wk =   0.0133333
        k(    6) = (   0.0500000   0.2020726   0.2670457), wk =   0.0133333
        k(    7) = (   0.0500000   0.3175426   0.0534091), wk =   0.0133333
        k(    8) = (   0.0500000   0.3175426   0.1602274), wk =   0.0133333
        k(    9) = (   0.0500000   0.3175426   0.2670457), wk =   0.0133333
        k(   10) = (   0.0500000   0.4330127   0.0534091), wk =   0.0133333
        k(   11) = (   0.0500000   0.4330127   0.1602274), wk =   0.0133333
        k(   12) = (   0.0500000   0.4330127   0.2670457), wk =   0.0133333
        k(   13) = (   0.0500000   0.5484828   0.0534091), wk =   0.0133333
        k(   14) = (   0.0500000   0.5484828   0.1602274), wk =   0.0133333
        k(   15) = (   0.0500000   0.5484828   0.2670457), wk =   0.0133333
        k(   16) = (   0.0500000  -0.4907477   0.0534091), wk =   0.0133333
        k(   17) = (   0.0500000  -0.4907477   0.1602274), wk =   0.0133333
        k(   18) = (   0.0500000  -0.4907477   0.2670457), wk =   0.0133333
        k(   19) = (   0.0500000  -0.3752777   0.0534091), wk =   0.0133333
        k(   20) = (   0.0500000  -0.3752777   0.1602274), wk =   0.0133333
        k(   21) = (   0.0500000  -0.3752777   0.2670457), wk =   0.0133333
        k(   22) = (   0.0500000  -0.2598076   0.0534091), wk =   0.0133333
        k(   23) = (   0.0500000  -0.2598076   0.1602274), wk =   0.0133333
        k(   24) = (   0.0500000  -0.2598076   0.2670457), wk =   0.0133333
        k(   25) = (   0.0500000  -0.1443376   0.0534091), wk =   0.0133333
        k(   26) = (   0.0500000  -0.1443376   0.1602274), wk =   0.0133333
        k(   27) = (   0.0500000  -0.1443376   0.2670457), wk =   0.0133333
        k(   28) = (   0.0500000  -0.0288675   0.0534091), wk =   0.0066667
        k(   29) = (   0.0500000  -0.0288675   0.1602274), wk =   0.0066667
        k(   30) = (   0.0500000  -0.0288675   0.2670457), wk =   0.0066667
        k(   31) = (   0.1500000   0.2598076   0.0534091), wk =   0.0066667
        k(   32) = (   0.1500000   0.2598076   0.1602274), wk =   0.0066667
        k(   33) = (   0.1500000   0.2598076   0.2670457), wk =   0.0066667
        k(   34) = (   0.1500000   0.3752777   0.0534091), wk =   0.0133333
        k(   35) = (   0.1500000   0.3752777   0.1602274), wk =   0.0133333
        k(   36) = (   0.1500000   0.3752777   0.2670457), wk =   0.0133333
        k(   37) = (   0.1500000   0.4907477   0.0534091), wk =   0.0133333
        k(   38) = (   0.1500000   0.4907477   0.1602274), wk =   0.0133333
        k(   39) = (   0.1500000   0.4907477   0.2670457), wk =   0.0133333
        k(   40) = (   0.1500000   0.6062178   0.0534091), wk =   0.0133333
        k(   41) = (   0.1500000   0.6062178   0.1602274), wk =   0.0133333
        k(   42) = (   0.1500000   0.6062178   0.2670457), wk =   0.0133333
        k(   43) = (   0.1500000  -0.4330127   0.0534091), wk =   0.0133333
        k(   44) = (   0.1500000  -0.4330127   0.1602274), wk =   0.0133333
        k(   45) = (   0.1500000  -0.4330127   0.2670457), wk =   0.0133333
        k(   46) = (   0.1500000  -0.3175426   0.0534091), wk =   0.0133333
        k(   47) = (   0.1500000  -0.3175426   0.1602274), wk =   0.0133333
        k(   48) = (   0.1500000  -0.3175426   0.2670457), wk =   0.0133333
        k(   49) = (   0.1500000  -0.2020726   0.0534091), wk =   0.0133333
        k(   50) = (   0.1500000  -0.2020726   0.1602274), wk =   0.0133333
        k(   51) = (   0.1500000  -0.2020726   0.2670457), wk =   0.0133333
        k(   52) = (   0.1500000  -0.0866025   0.0534091), wk =   0.0066667
        k(   53) = (   0.1500000  -0.0866025   0.1602274), wk =   0.0066667
        k(   54) = (   0.1500000  -0.0866025   0.2670457), wk =   0.0066667
        k(   55) = (   0.2500000   0.4330127   0.0534091), wk =   0.0066667
        k(   56) = (   0.2500000   0.4330127   0.1602274), wk =   0.0066667
        k(   57) = (   0.2500000   0.4330127   0.2670457), wk =   0.0066667
        k(   58) = (   0.2500000   0.5484828   0.0534091), wk =   0.0133333
        k(   59) = (   0.2500000   0.5484828   0.1602274), wk =   0.0133333
        k(   60) = (   0.2500000   0.5484828   0.2670457), wk =   0.0133333
        k(   61) = (   0.2500000   0.6639528   0.0534091), wk =   0.0133333
        k(   62) = (   0.2500000   0.6639528   0.1602274), wk =   0.0133333
        k(   63) = (   0.2500000   0.6639528   0.2670457), wk =   0.0133333
        k(   64) = (   0.2500000  -0.3752777   0.0534091), wk =   0.0133333
        k(   65) = (   0.2500000  -0.3752777   0.1602274), wk =   0.0133333
        k(   66) = (   0.2500000  -0.3752777   0.2670457), wk =   0.0133333
        k(   67) = (   0.2500000  -0.2598076   0.0534091), wk =   0.0133333
        k(   68) = (   0.2500000  -0.2598076   0.1602274), wk =   0.0133333
        k(   69) = (   0.2500000  -0.2598076   0.2670457), wk =   0.0133333
        k(   70) = (   0.2500000  -0.1443376   0.0534091), wk =   0.0066667
        k(   71) = (   0.2500000  -0.1443376   0.1602274), wk =   0.0066667
        k(   72) = (   0.2500000  -0.1443376   0.2670457), wk =   0.0066667
        k(   73) = (   0.3500000   0.6062178   0.0534091), wk =   0.0066667
        k(   74) = (   0.3500000   0.6062178   0.1602274), wk =   0.0066667
        k(   75) = (   0.3500000   0.6062178   0.2670457), wk =   0.0066667
        k(   76) = (   0.3500000   0.7216878   0.0534091), wk =   0.0133333
        k(   77) = (   0.3500000   0.7216878   0.1602274), wk =   0.0133333
        k(   78) = (   0.3500000   0.7216878   0.2670457), wk =   0.0133333
        k(   79) = (   0.3500000  -0.3175426   0.0534091), wk =   0.0133333
        k(   80) = (   0.3500000  -0.3175426   0.1602274), wk =   0.0133333
        k(   81) = (   0.3500000  -0.3175426   0.2670457), wk =   0.0133333
        k(   82) = (   0.3500000  -0.2020726   0.0534091), wk =   0.0066667
        k(   83) = (   0.3500000  -0.2020726   0.1602274), wk =   0.0066667
        k(   84) = (   0.3500000  -0.2020726   0.2670457), wk =   0.0066667
        k(   85) = (   0.4500000   0.7794229   0.0534091), wk =   0.0066667
        k(   86) = (   0.4500000   0.7794229   0.1602274), wk =   0.0066667
        k(   87) = (   0.4500000   0.7794229   0.2670457), wk =   0.0066667
        k(   88) = (   0.4500000  -0.2598076   0.0534091), wk =   0.0066667
        k(   89) = (   0.4500000  -0.2598076   0.1602274), wk =   0.0066667
        k(   90) = (   0.4500000  -0.2598076   0.2670457), wk =   0.0066667

     Dense  grid:    45321 G-vectors     FFT dimensions: (  45,  45,  64)

     Smooth grid:    15951 G-vectors     FFT dimensions: (  30,  30,  48)

     Estimated max dynamical RAM per process >     138.14 MB

     Estimated total dynamical RAM >     276.29 MB
     Generating pointlists ...
     new r_m :   0.4003 (alat units)  2.5107 (a.u.) for type    1

     Check: negative core charge=   -0.000012

     Initial potential from superposition of free atoms

     starting charge   21.99488, renormalised to   22.00000

     negative rho (up, down):  0.000E+00 4.684E-01
     Starting wfcs are   20 randomized atomic wfcs
     Checking if some PAW data can be deallocated... 

     total cpu time spent up to now is        9.0 secs

     Self-consistent Calculation

     iteration #  1     ecut=    50.00 Ry     beta= 0.70
     Davidson diagonalization with overlap
     ethr =  1.00E-02,  avg # of iterations =  2.8

     total cpu time spent up to now is       22.8 secs

     total energy              =    -312.90642796 Ry
     Harris-Foulkes estimate   =    -308.68188296 Ry
     estimated scf accuracy    <       2.38746089 Ry

     total magnetization       =     5.96 Bohr mag/cell
     absolute magnetization    =     5.96 Bohr mag/cell

     iteration #  2     ecut=    50.00 Ry     beta= 0.70
     Davidson diagonalization with overlap
     ethr =  1.00E-02,  avg # of iterations =  3.0

     total cpu time spent up to now is       36.8 secs

     total energy              =    -313.60606784 Ry
     Harris-Foulkes estimate   =    -313.67157369 Ry
     estimated scf accuracy    <       1.04592315 Ry

     total magnetization       =     2.76 Bohr mag/cell
     absolute magnetization    =     2.77 Bohr mag/cell

     iteration #  3     ecut=    50.00 Ry     beta= 0.70
     Davidson diagonalization with overlap
     ethr =  4.75E-03,  avg # of iterations =  2.1

     total cpu time spent up to now is       49.9 secs

     total energy              =    -313.82407905 Ry
     Harris-Foulkes estimate   =    -313.71614529 Ry
     estimated scf accuracy    <       0.11536916 Ry

     total magnetization       =     2.68 Bohr mag/cell
     absolute magnetization    =     2.68 Bohr mag/cell

     iteration #  4     ecut=    50.00 Ry     beta= 0.70
     Davidson diagonalization with overlap
     ethr =  5.24E-04,  avg # of iterations =  4.7

     total cpu time spent up to now is       71.4 secs

     total energy              =    -313.89165154 Ry
     Harris-Foulkes estimate   =    -313.94294887 Ry
     estimated scf accuracy    <       0.11135381 Ry

     total magnetization       =     1.50 Bohr mag/cell
     absolute magnetization    =     1.50 Bohr mag/cell

     iteration #  5     ecut=    50.00 Ry     beta= 0.70
     Davidson diagonalization with overlap
     ethr =  5.06E-04,  avg # of iterations =  1.8

     total cpu time spent up to now is       83.7 secs

     total energy              =    -313.90004800 Ry
     Harris-Foulkes estimate   =    -313.90397583 Ry
     estimated scf accuracy    <       0.01186062 Ry

     total magnetization       =     1.27 Bohr mag/cell
     absolute magnetization    =     1.27 Bohr mag/cell

     iteration #  6     ecut=    50.00 Ry     beta= 0.70
     Davidson diagonalization with overlap
     ethr =  5.39E-05,  avg # of iterations =  4.3

     total cpu time spent up to now is      104.7 secs

     total energy              =    -313.91299652 Ry
     Harris-Foulkes estimate   =    -313.91458570 Ry
     estimated scf accuracy    <       0.00582722 Ry

     total magnetization       =     1.05 Bohr mag/cell
     absolute magnetization    =     1.05 Bohr mag/cell

     iteration #  7     ecut=    50.00 Ry     beta= 0.70
     Davidson diagonalization with overlap
     ethr =  2.65E-05,  avg # of iterations =  1.0

     total cpu time spent up to now is      116.1 secs

     total energy              =    -313.91222996 Ry
     Harris-Foulkes estimate   =    -313.91333716 Ry
     estimated scf accuracy    <       0.00205838 Ry

     total magnetization       =     0.94 Bohr mag/cell
     absolute magnetization    =     0.94 Bohr mag/cell

     iteration #  8     ecut=    50.00 Ry     beta= 0.70
     Davidson diagonalization with overlap
     ethr =  9.36E-06,  avg # of iterations =  3.9

     total cpu time spent up to now is      134.6 secs

     total energy              =    -313.91327942 Ry
     Harris-Foulkes estimate   =    -313.91340148 Ry
     estimated scf accuracy    <       0.00024722 Ry

     total magnetization       =     0.84 Bohr mag/cell
     absolute magnetization    =     0.84 Bohr mag/cell

     iteration #  9     ecut=    50.00 Ry     beta= 0.70
     Davidson diagonalization with overlap
     c_bands:  1 eigenvalues not converged
     ethr =  1.12E-06,  avg # of iterations =  5.2

     total cpu time spent up to now is      156.2 secs

     total energy              =    -313.91354259 Ry
     Harris-Foulkes estimate   =    -313.91353555 Ry
     estimated scf accuracy    <       0.00010127 Ry

     total magnetization       =     0.74 Bohr mag/cell
     absolute magnetization    =     0.74 Bohr mag/cell

     iteration # 10     ecut=    50.00 Ry     beta= 0.70
     Davidson diagonalization with overlap
     c_bands:  1 eigenvalues not converged
     ethr =  4.60E-07,  avg # of iterations =  2.2

     total cpu time spent up to now is      169.6 secs

     total energy              =    -313.91353322 Ry
     Harris-Foulkes estimate   =    -313.91363202 Ry
     estimated scf accuracy    <       0.00007973 Ry

     total magnetization       =     0.66 Bohr mag/cell
     absolute magnetization    =     0.66 Bohr mag/cell

     iteration # 11     ecut=    50.00 Ry     beta= 0.70
     Davidson diagonalization with overlap
     ethr =  3.62E-07,  avg # of iterations =  4.2

     total cpu time spent up to now is      185.6 secs

     total energy              =    -313.91346594 Ry
     Harris-Foulkes estimate   =    -313.91372001 Ry
     estimated scf accuracy    <       0.00003010 Ry

     total magnetization       =     0.54 Bohr mag/cell
     absolute magnetization    =     0.54 Bohr mag/cell

     iteration # 12     ecut=    50.00 Ry     beta= 0.70
     Davidson diagonalization with overlap
     ethr =  1.37E-07,  avg # of iterations =  5.8

     total cpu time spent up to now is      206.1 secs

     total energy              =    -313.91379504 Ry
     Harris-Foulkes estimate   =    -313.91379952 Ry
     estimated scf accuracy    <       0.00000686 Ry

     total magnetization       =     0.37 Bohr mag/cell
     absolute magnetization    =     0.38 Bohr mag/cell

     iteration # 13     ecut=    50.00 Ry     beta= 0.70
     Davidson diagonalization with overlap
     ethr =  3.12E-08,  avg # of iterations =  4.2

     total cpu time spent up to now is      223.0 secs

     total energy              =    -313.91363613 Ry
     Harris-Foulkes estimate   =    -313.91380874 Ry
     estimated scf accuracy    <       0.00000101 Ry

     total magnetization       =     0.34 Bohr mag/cell
     absolute magnetization    =     0.34 Bohr mag/cell

     iteration # 14     ecut=    50.00 Ry     beta= 0.70
     Davidson diagonalization with overlap
     ethr =  4.61E-09,  avg # of iterations =  8.4

     total cpu time spent up to now is      251.4 secs

     total energy              =    -313.91372936 Ry
     Harris-Foulkes estimate   =    -313.91383873 Ry
     estimated scf accuracy    <       0.00000134 Ry

     total magnetization       =     0.21 Bohr mag/cell
     absolute magnetization    =     0.21 Bohr mag/cell

     iteration # 15     ecut=    50.00 Ry     beta= 0.70
     Davidson diagonalization with overlap
     ethr =  4.61E-09,  avg # of iterations =  6.5

     total cpu time spent up to now is      275.9 secs

     total energy              =    -313.91383976 Ry
     Harris-Foulkes estimate   =    -313.91385119 Ry
     estimated scf accuracy    <       0.00000310 Ry

     total magnetization       =     0.10 Bohr mag/cell
     absolute magnetization    =     0.10 Bohr mag/cell

     iteration # 16     ecut=    50.00 Ry     beta= 0.70
     Davidson diagonalization with overlap
     ethr =  4.61E-09,  avg # of iterations =  4.7

     Magnetic moment per site:
     atom:    1    charge:    9.6712    magn:    0.0408    constr:    0.0000
     atom:    2    charge:    9.6712    magn:    0.0408    constr:    0.0000

     total cpu time spent up to now is      296.7 secs

     End of self-consistent calculation

     Number of k-points >= 100: set verbosity='high' to print the bands.

     the Fermi energy is     9.2292 ev

!    total energy              =    -313.91384840 Ry
     Harris-Foulkes estimate   =    -313.91384817 Ry
     estimated scf accuracy    <       0.00000009 Ry

     total all-electron energy =     -3056.891415 Ry

     The total energy is the sum of the following terms:

     one-electron contribution =     -73.58859677 Ry
     hartree contribution      =      42.05355189 Ry
     xc contribution           =     -34.90236869 Ry
     ewald contribution        =    -126.97344279 Ry
     one-center paw contrib.   =    -120.50209886 Ry
     smearing contrib. (-TS)   =      -0.00089318 Ry

     total magnetization       =     0.13 Bohr mag/cell
     absolute magnetization    =     0.13 Bohr mag/cell

     convergence has been achieved in  16 iterations

     Forces acting on atoms (cartesian axes, Ry/au):

     atom    1 type  1   force =     0.00000000    0.00000000    0.00000000
     atom    2 type  1   force =    -0.00000000   -0.00000000    0.00000000

     Total force =     0.000000     Total SCF correction =     0.000000


     Computing stress (Cartesian axis) and pressure

          total   stress  (Ry/bohr**3)                   (kbar)     P=   -4.09
  -0.00002548   0.00000000   0.00000000         -3.75      0.00      0.00
  -0.00000000  -0.00002548   0.00000000         -0.00     -3.75      0.00
   0.00000000  -0.00000000  -0.00003256          0.00     -0.00     -4.79


     BFGS Geometry Optimization

     number of scf cycles    =   1
     number of bfgs steps    =   0

     enthalpy new            =    -313.9138483977 Ry

     new trust radius        =       0.0029720921 bohr
     new conv_thr            =       0.0000010000 Ry

     new unit-cell volume =    332.59191 a.u.^3 (    49.28504 Ang^3 )
     density =      3.02930 g/cm^3

CELL_PARAMETERS (alat=  6.27135853)
   0.999363118  -0.000000000   0.000000000
  -0.499681559   0.865473848  -0.000000000
   0.000000000   0.000000000   1.559012249

ATOMIC_POSITIONS (crystal)
Sc       0.666666667   0.333333333   0.250000000
Sc       0.333333333   0.666666667   0.750000000



     Writing output data file pw.save/
     NEW-OLD atomic charge density approx. for the potential

     Check: negative core charge=   -0.000012
     extrapolated charge   21.95402, renormalised to   22.00000

     total cpu time spent up to now is      308.5 secs

     Self-consistent Calculation

     iteration #  1     ecut=    50.00 Ry     beta= 0.70
     Davidson diagonalization with overlap
     ethr =  1.00E-06,  avg # of iterations =  4.6

     total cpu time spent up to now is      329.6 secs

     total energy              =    -313.91337076 Ry
     Harris-Foulkes estimate   =    -314.01452493 Ry
     estimated scf accuracy    <       0.00034373 Ry

     total magnetization       =     0.13 Bohr mag/cell
     absolute magnetization    =     0.13 Bohr mag/cell

     iteration #  2     ecut=    50.00 Ry     beta= 0.70
     Davidson diagonalization with overlap
     ethr =  1.56E-06,  avg # of iterations =  4.5

     total cpu time spent up to now is      352.2 secs

     total energy              =    -313.91384524 Ry
     Harris-Foulkes estimate   =    -313.91418948 Ry
     estimated scf accuracy    <       0.00082033 Ry

     total magnetization       =     0.12 Bohr mag/cell
     absolute magnetization    =     0.12 Bohr mag/cell

     iteration #  3     ecut=    50.00 Ry     beta= 0.70
     Davidson diagonalization with overlap
     ethr =  1.56E-06,  avg # of iterations =  2.8

     total cpu time spent up to now is      366.4 secs

     total energy              =    -313.91386156 Ry
     Harris-Foulkes estimate   =    -313.91389892 Ry
     estimated scf accuracy    <       0.00017522 Ry

     total magnetization       =     0.12 Bohr mag/cell
     absolute magnetization    =     0.12 Bohr mag/cell

     iteration #  4     ecut=    50.00 Ry     beta= 0.70
     Davidson diagonalization with overlap
     ethr =  7.96E-07,  avg # of iterations =  3.6

     total cpu time spent up to now is      380.9 secs

     total energy              =    -313.91385818 Ry
     Harris-Foulkes estimate   =    -313.91388240 Ry
     estimated scf accuracy    <       0.00006686 Ry

     total magnetization       =     0.12 Bohr mag/cell
     absolute magnetization    =     0.12 Bohr mag/cell

     iteration #  5     ecut=    50.00 Ry     beta= 0.70
     Davidson diagonalization with overlap
     ethr =  3.04E-07,  avg # of iterations =  3.5

     total cpu time spent up to now is      395.7 secs

     total energy              =    -313.91385620 Ry
     Harris-Foulkes estimate   =    -313.91386768 Ry
     estimated scf accuracy    <       0.00001312 Ry

     total magnetization       =     0.12 Bohr mag/cell
     absolute magnetization    =     0.12 Bohr mag/cell

     iteration #  6     ecut=    50.00 Ry     beta= 0.70
     Davidson diagonalization with overlap
     ethr =  5.96E-08,  avg # of iterations =  4.3

     total cpu time spent up to now is      416.0 secs

     total energy              =    -313.91386924 Ry
     Harris-Foulkes estimate   =    -313.91387380 Ry
     estimated scf accuracy    <       0.00001710 Ry

     total magnetization       =     0.11 Bohr mag/cell
     absolute magnetization    =     0.11 Bohr mag/cell

     iteration #  7     ecut=    50.00 Ry     beta= 0.70
     Davidson diagonalization with overlap
     ethr =  5.96E-08,  avg # of iterations =  1.0

     total cpu time spent up to now is      427.4 secs

     total energy              =    -313.91386926 Ry
     Harris-Foulkes estimate   =    -313.91386956 Ry
     estimated scf accuracy    <       0.00000885 Ry

     total magnetization       =     0.11 Bohr mag/cell
     absolute magnetization    =     0.11 Bohr mag/cell

     iteration #  8     ecut=    50.00 Ry     beta= 0.70
     Davidson diagonalization with overlap
     ethr =  4.02E-08,  avg # of iterations =  1.0

     total cpu time spent up to now is      438.9 secs

     total energy              =    -313.91386619 Ry
     Harris-Foulkes estimate   =    -313.91386956 Ry
     estimated scf accuracy    <       0.00000786 Ry

     total magnetization       =     0.11 Bohr mag/cell
     absolute magnetization    =     0.11 Bohr mag/cell

     iteration #  9     ecut=    50.00 Ry     beta= 0.70
     Davidson diagonalization with overlap
     ethr =  3.57E-08,  avg # of iterations =  2.9

     total cpu time spent up to now is      453.0 secs

     total energy              =    -313.91386900 Ry
     Harris-Foulkes estimate   =    -313.91386935 Ry
     estimated scf accuracy    <       0.00000305 Ry

     total magnetization       =     0.09 Bohr mag/cell
     absolute magnetization    =     0.09 Bohr mag/cell

     iteration # 10     ecut=    50.00 Ry     beta= 0.70
     Davidson diagonalization with overlap
     ethr =  1.38E-08,  avg # of iterations =  2.7

     total cpu time spent up to now is      466.7 secs

     total energy              =    -313.91386093 Ry
     Harris-Foulkes estimate   =    -313.91386927 Ry
     estimated scf accuracy    <       0.00000194 Ry

     total magnetization       =     0.09 Bohr mag/cell
     absolute magnetization    =     0.09 Bohr mag/cell

     iteration # 11     ecut=    50.00 Ry     beta= 0.70
     Davidson diagonalization with overlap
     ethr =  8.81E-09,  avg # of iterations =  4.5

     Magnetic moment per site:
     atom:    1    charge:    9.6704    magn:    0.0209    constr:    0.0000
     atom:    2    charge:    9.6704    magn:    0.0209    constr:    0.0000

     total cpu time spent up to now is      486.2 secs

     End of self-consistent calculation

     Number of k-points >= 100: set verbosity='high' to print the bands.

     the Fermi energy is     9.2536 ev

!    total energy              =    -313.91387014 Ry
     Harris-Foulkes estimate   =    -313.91387021 Ry
     estimated scf accuracy    <       0.00000018 Ry

     total all-electron energy =     -3056.891437 Ry

     The total energy is the sum of the following terms:

     one-electron contribution =     -73.45326873 Ry
     hartree contribution      =      42.00809586 Ry
     xc contribution           =     -34.90418827 Ry
     ewald contribution        =    -127.06159261 Ry
     one-center paw contrib.   =    -120.50201640 Ry
     smearing contrib. (-TS)   =      -0.00090000 Ry

     total magnetization       =     0.07 Bohr mag/cell
     absolute magnetization    =     0.07 Bohr mag/cell

     convergence has been achieved in  11 iterations

     Forces acting on atoms (cartesian axes, Ry/au):

     atom    1 type  1   force =    -0.00000000    0.00000000   -0.00000000
     atom    2 type  1   force =     0.00000000   -0.00000000    0.00000000

     Total force =     0.000000     Total SCF correction =     0.000000


     Computing stress (Cartesian axis) and pressure

          total   stress  (Ry/bohr**3)                   (kbar)     P=   -4.05
  -0.00002442   0.00000000   0.00000000         -3.59      0.00      0.00
  -0.00000000  -0.00002442   0.00000000         -0.00     -3.59      0.00
   0.00000000   0.00000000  -0.00003385          0.00      0.00     -4.98


     number of scf cycles    =   2
     number of bfgs steps    =   1

     enthalpy old            =    -313.9138483977 Ry
     enthalpy new            =    -313.9138701447 Ry

     CASE: enthalpy_new < enthalpy_old


     WARNING: bfgs curvature condition failed, Theta= 0.805
     new trust radius        =       0.0044571133 bohr
     new conv_thr            =       0.0000000100 Ry

     new unit-cell volume =    331.55653 a.u.^3 (    49.13161 Ang^3 )
     density =      3.03876 g/cm^3

CELL_PARAMETERS (alat=  6.27135853)
   0.998416584  -0.000000000   0.000000000
  -0.499208292   0.864654125  -0.000000000
   0.000000000   0.000000000   1.557107151

ATOMIC_POSITIONS (crystal)
Sc       0.666666667   0.333333333   0.250000000
Sc       0.333333333   0.666666667   0.750000000



     Writing output data file pw.save/
     NEW-OLD atomic charge density approx. for the potential

     Check: negative core charge=   -0.000012
     extrapolated charge   21.93131, renormalised to   22.00000

     total cpu time spent up to now is      498.1 secs

     Self-consistent Calculation

     iteration #  1     ecut=    50.00 Ry     beta= 0.70
     Davidson diagonalization with overlap
     ethr =  1.00E-06,  avg # of iterations =  5.0

     total cpu time spent up to now is      520.6 secs

     total energy              =    -313.91275079 Ry
     Harris-Foulkes estimate   =    -314.06388732 Ry
     estimated scf accuracy    <       0.00080340 Ry

     total magnetization       =     0.06 Bohr mag/cell
     absolute magnetization    =     0.06 Bohr mag/cell

     iteration #  2     ecut=    50.00 Ry     beta= 0.70
     Davidson diagonalization with overlap
     ethr =  3.65E-06,  avg # of iterations =  4.5

     total cpu time spent up to now is      542.6 secs

     total energy              =    -313.91383560 Ry
     Harris-Foulkes estimate   =    -313.91462192 Ry
     estimated scf accuracy    <       0.00185965 Ry

     total magnetization       =     0.06 Bohr mag/cell
     absolute magnetization    =     0.06 Bohr mag/cell

     iteration #  3     ecut=    50.00 Ry     beta= 0.70
     Davidson diagonalization with overlap
     ethr =  3.65E-06,  avg # of iterations =  2.8

     total cpu time spent up to now is      556.7 secs

     total energy              =    -313.91387335 Ry
     Harris-Foulkes estimate   =    -313.91395569 Ry
     estimated scf accuracy    <       0.00040343 Ry

     total magnetization       =     0.06 Bohr mag/cell
     absolute magnetization    =     0.06 Bohr mag/cell

     iteration #  4     ecut=    50.00 Ry     beta= 0.70
     Davidson diagonalization with overlap
     ethr =  1.83E-06,  avg # of iterations =  3.7

     total cpu time spent up to now is      571.4 secs

     total energy              =    -313.91388028 Ry
     Harris-Foulkes estimate   =    -313.91392448 Ry
     estimated scf accuracy    <       0.00015129 Ry

     total magnetization       =     0.06 Bohr mag/cell
     absolute magnetization    =     0.06 Bohr mag/cell

     iteration #  5     ecut=    50.00 Ry     beta= 0.70
     Davidson diagonalization with overlap
     ethr =  6.88E-07,  avg # of iterations =  3.1

     total cpu time spent up to now is      585.5 secs

     total energy              =    -313.91386499 Ry
     Harris-Foulkes estimate   =    -313.91389617 Ry
     estimated scf accuracy    <       0.00004762 Ry

     total magnetization       =     0.06 Bohr mag/cell
     absolute magnetization    =     0.06 Bohr mag/cell

     iteration #  6     ecut=    50.00 Ry     beta= 0.70
     Davidson diagonalization with overlap
     ethr =  2.16E-07,  avg # of iterations =  4.0

     total cpu time spent up to now is      604.6 secs

     total energy              =    -313.91388678 Ry
     Harris-Foulkes estimate   =    -313.91388868 Ry
     estimated scf accuracy    <       0.00000274 Ry

     total magnetization       =     0.06 Bohr mag/cell
     absolute magnetization    =     0.06 Bohr mag/cell

     iteration #  7     ecut=    50.00 Ry     beta= 0.70
     Davidson diagonalization with overlap
     ethr =  1.24E-08,  avg # of iterations =  3.9

     total cpu time spent up to now is      623.0 secs

     total energy              =    -313.91388831 Ry
     Harris-Foulkes estimate   =    -313.91388797 Ry
     estimated scf accuracy    <       0.00000019 Ry

     total magnetization       =     0.06 Bohr mag/cell
     absolute magnetization    =     0.06 Bohr mag/cell

     iteration #  8     ecut=    50.00 Ry     beta= 0.70
     Davidson diagonalization with overlap
     ethr =  8.58E-10,  avg # of iterations =  4.8

     total cpu time spent up to now is      643.1 secs

     total energy              =    -313.91388782 Ry
     Harris-Foulkes estimate   =    -313.91388846 Ry
     estimated scf accuracy    <       0.00000127 Ry

     total magnetization       =     0.06 Bohr mag/cell
     absolute magnetization    =     0.06 Bohr mag/cell

     iteration #  9     ecut=    50.00 Ry     beta= 0.70
     Davidson diagonalization with overlap
     ethr =  8.58E-10,  avg # of iterations =  4.3

     total cpu time spent up to now is      662.3 secs

     total energy              =    -313.91388760 Ry
     Harris-Foulkes estimate   =    -313.91388810 Ry
     estimated scf accuracy    <       0.00000010 Ry

     total magnetization       =     0.05 Bohr mag/cell
     absolute magnetization    =     0.05 Bohr mag/cell

     iteration # 10     ecut=    50.00 Ry     beta= 0.70
     Davidson diagonalization with overlap
     ethr =  4.75E-10,  avg # of iterations =  5.1

     total cpu time spent up to now is      684.1 secs

     total energy              =    -313.91388410 Ry
     Harris-Foulkes estimate   =    -313.91388844 Ry
     estimated scf accuracy    <       0.00000028 Ry

     total magnetization       =     0.05 Bohr mag/cell
     absolute magnetization    =     0.05 Bohr mag/cell

     iteration # 11     ecut=    50.00 Ry     beta= 0.70
     Davidson diagonalization with overlap
     ethr =  4.75E-10,  avg # of iterations =  5.9

     total cpu time spent up to now is      708.2 secs

     total energy              =    -313.91388493 Ry
     Harris-Foulkes estimate   =    -313.91389022 Ry
     estimated scf accuracy    <       0.00000349 Ry

     total magnetization       =     0.02 Bohr mag/cell
     absolute magnetization    =     0.02 Bohr mag/cell

     iteration # 12     ecut=    50.00 Ry     beta= 0.70
     Davidson diagonalization with overlap
     ethr =  4.75E-10,  avg # of iterations =  6.8

     total cpu time spent up to now is      733.6 secs

     total energy              =    -313.91388442 Ry
     Harris-Foulkes estimate   =    -313.91388915 Ry
     estimated scf accuracy    <       0.00000013 Ry

     total magnetization       =     0.01 Bohr mag/cell
     absolute magnetization    =     0.01 Bohr mag/cell

     iteration # 13     ecut=    50.00 Ry     beta= 0.70
     Davidson diagonalization with overlap
     ethr =  4.75E-10,  avg # of iterations =  5.5

     total cpu time spent up to now is      756.5 secs

     total energy              =    -313.91388421 Ry
     Harris-Foulkes estimate   =    -313.91388892 Ry
     estimated scf accuracy    <       0.00000018 Ry

     total magnetization       =     0.03 Bohr mag/cell
     absolute magnetization    =     0.03 Bohr mag/cell

     iteration # 14     ecut=    50.00 Ry     beta= 0.70
     Davidson diagonalization with overlap
     ethr =  4.75E-10,  avg # of iterations =  5.5

     total cpu time spent up to now is      779.5 secs

     total energy              =    -313.91388897 Ry
     Harris-Foulkes estimate   =    -313.91388916 Ry
     estimated scf accuracy    <       0.00000015 Ry

     total magnetization       =     0.01 Bohr mag/cell
     absolute magnetization    =     0.01 Bohr mag/cell

     iteration # 15     ecut=    50.00 Ry     beta= 0.70
     Davidson diagonalization with overlap
     ethr =  4.75E-10,  avg # of iterations =  3.9

     Magnetic moment per site:
     atom:    1    charge:    9.6696    magn:    0.0006    constr:    0.0000
     atom:    2    charge:    9.6696    magn:    0.0006    constr:    0.0000

     total cpu time spent up to now is      797.0 secs

     End of self-consistent calculation

     Number of k-points >= 100: set verbosity='high' to print the bands.

     the Fermi energy is     9.2886 ev

!    total energy              =    -313.91388910 Ry
     Harris-Foulkes estimate   =    -313.91388910 Ry
     estimated scf accuracy    <          2.2E-09 Ry

     total all-electron energy =     -3056.891456 Ry

     The total energy is the sum of the following terms:

     one-electron contribution =     -73.25611027 Ry
     hartree contribution      =      41.94679044 Ry
     xc contribution           =     -34.90838393 Ry
     ewald contribution        =    -127.19328683 Ry
     one-center paw contrib.   =    -120.50200079 Ry
     smearing contrib. (-TS)   =      -0.00089772 Ry

     total magnetization       =     0.00 Bohr mag/cell
     absolute magnetization    =     0.00 Bohr mag/cell

     convergence has been achieved in  15 iterations

     Forces acting on atoms (cartesian axes, Ry/au):

     atom    1 type  1   force =    -0.00000000   -0.00000000    0.00000000
     atom    2 type  1   force =     0.00000000    0.00000000   -0.00000000

     Total force =     0.000000     Total SCF correction =     0.000000


     Computing stress (Cartesian axis) and pressure

          total   stress  (Ry/bohr**3)                   (kbar)     P=   -1.71
  -0.00000841   0.00000000  -0.00000000         -1.24      0.00     -0.00
   0.00000000  -0.00000841  -0.00000000          0.00     -1.24     -0.00
  -0.00000000  -0.00000000  -0.00001809         -0.00     -0.00     -2.66


     number of scf cycles    =   3
     number of bfgs steps    =   2

     enthalpy old            =    -313.9138701447 Ry
     enthalpy new            =    -313.9138891017 Ry

     CASE: enthalpy_new < enthalpy_old

     new trust radius        =       0.0040023779 bohr
     new conv_thr            =       0.0000000100 Ry

     new unit-cell volume =    330.76591 a.u.^3 (    49.01445 Ang^3 )
     density =      3.04602 g/cm^3

CELL_PARAMETERS (alat=  6.27135853)
   0.997773906  -0.000000000  -0.000000000
  -0.498886953   0.864097549  -0.000000000
  -0.000000000  -0.000000000   1.555395844

ATOMIC_POSITIONS (crystal)
Sc       0.666666667   0.333333333   0.250000000
Sc       0.333333333   0.666666667   0.750000000



     Writing output data file pw.save/
     NEW-OLD atomic charge density approx. for the potential

     Check: negative core charge=   -0.000012
     extrapolated charge   21.94743, renormalised to   22.00000

     total cpu time spent up to now is      808.9 secs

     Self-consistent Calculation

     iteration #  1     ecut=    50.00 Ry     beta= 0.70
     Davidson diagonalization with overlap
     ethr =  1.00E-06,  avg # of iterations =  4.6

     total cpu time spent up to now is      830.2 secs

     total energy              =    -313.91324469 Ry
     Harris-Foulkes estimate   =    -314.02843675 Ry
     estimated scf accuracy    <       0.00045295 Ry

     total magnetization       =     0.00 Bohr mag/cell
     absolute magnetization    =     0.00 Bohr mag/cell

     iteration #  2     ecut=    50.00 Ry     beta= 0.70
     Davidson diagonalization with overlap
     ethr =  2.06E-06,  avg # of iterations =  4.5

     total cpu time spent up to now is      852.3 secs

     total energy              =    -313.91386729 Ry
     Harris-Foulkes estimate   =    -313.91431707 Ry
     estimated scf accuracy    <       0.00106833 Ry

     total magnetization       =     0.00 Bohr mag/cell
     absolute magnetization    =     0.00 Bohr mag/cell

     iteration #  3     ecut=    50.00 Ry     beta= 0.70
     Davidson diagonalization with overlap
     ethr =  2.06E-06,  avg # of iterations =  2.8

     total cpu time spent up to now is      866.5 secs

     total energy              =    -313.91388784 Ry
     Harris-Foulkes estimate   =    -313.91393569 Ry
     estimated scf accuracy    <       0.00023359 Ry

     total magnetization       =     0.00 Bohr mag/cell
     absolute magnetization    =     0.00 Bohr mag/cell

     iteration #  4     ecut=    50.00 Ry     beta= 0.70
     Davidson diagonalization with overlap
     ethr =  1.06E-06,  avg # of iterations =  3.7

     total cpu time spent up to now is      881.2 secs

     total energy              =    -313.91388649 Ry
     Harris-Foulkes estimate   =    -313.91391690 Ry
     estimated scf accuracy    <       0.00008810 Ry

     total magnetization       =     0.00 Bohr mag/cell
     absolute magnetization    =     0.00 Bohr mag/cell

     iteration #  5     ecut=    50.00 Ry     beta= 0.70
     Davidson diagonalization with overlap
     ethr =  4.00E-07,  avg # of iterations =  3.3

     total cpu time spent up to now is      895.3 secs

     total energy              =    -313.91388579 Ry
     Harris-Foulkes estimate   =    -313.91389759 Ry
     estimated scf accuracy    <       0.00002066 Ry

     total magnetization       =     0.00 Bohr mag/cell
     absolute magnetization    =     0.00 Bohr mag/cell

     iteration #  6     ecut=    50.00 Ry     beta= 0.70
     Davidson diagonalization with overlap
     ethr =  9.39E-08,  avg # of iterations =  4.2

     total cpu time spent up to now is      913.6 secs

     total energy              =    -313.91389519 Ry
     Harris-Foulkes estimate   =    -313.91389522 Ry
     estimated scf accuracy    <       0.00000013 Ry

     total magnetization       =     0.00 Bohr mag/cell
     absolute magnetization    =     0.00 Bohr mag/cell

     iteration #  7     ecut=    50.00 Ry     beta= 0.70
     Davidson diagonalization with overlap
     ethr =  5.72E-10,  avg # of iterations =  5.2

     total cpu time spent up to now is      936.2 secs

     total energy              =    -313.91389584 Ry
     Harris-Foulkes estimate   =    -313.91389570 Ry
     estimated scf accuracy    <       0.00000081 Ry

     total magnetization       =     0.00 Bohr mag/cell
     absolute magnetization    =     0.00 Bohr mag/cell

     iteration #  8     ecut=    50.00 Ry     beta= 0.70
     Davidson diagonalization with overlap
     ethr =  5.72E-10,  avg # of iterations =  1.0

     total cpu time spent up to now is      947.7 secs

     total energy              =    -313.91389537 Ry
     Harris-Foulkes estimate   =    -313.91389585 Ry
     estimated scf accuracy    <       0.00000110 Ry

     total magnetization       =     0.00 Bohr mag/cell
     absolute magnetization    =     0.00 Bohr mag/cell

     iteration #  9     ecut=    50.00 Ry     beta= 0.70
     Davidson diagonalization with overlap
     ethr =  5.72E-10,  avg # of iterations =  3.5

     total cpu time spent up to now is      965.2 secs

     total energy              =    -313.91389541 Ry
     Harris-Foulkes estimate   =    -313.91389543 Ry
     estimated scf accuracy    <       0.00000025 Ry

     total magnetization       =     0.00 Bohr mag/cell
     absolute magnetization    =     0.00 Bohr mag/cell

     iteration # 10     ecut=    50.00 Ry     beta= 0.70
     Davidson diagonalization with overlap
     ethr =  5.72E-10,  avg # of iterations =  1.0

     total cpu time spent up to now is      976.7 secs

     total energy              =    -313.91389535 Ry
     Harris-Foulkes estimate   =    -313.91389541 Ry
     estimated scf accuracy    <       0.00000021 Ry

     total magnetization       =     0.00 Bohr mag/cell
     absolute magnetization    =     0.00 Bohr mag/cell

     iteration # 11     ecut=    50.00 Ry     beta= 0.70
     Davidson diagonalization with overlap
     ethr =  5.72E-10,  avg # of iterations =  1.0

     total cpu time spent up to now is      988.1 secs

     total energy              =    -313.91389533 Ry
     Harris-Foulkes estimate   =    -313.91389536 Ry
     estimated scf accuracy    <       0.00000011 Ry

     total magnetization       =     0.00 Bohr mag/cell
     absolute magnetization    =     0.00 Bohr mag/cell

     iteration # 12     ecut=    50.00 Ry     beta= 0.70
     Davidson diagonalization with overlap
     ethr =  5.08E-10,  avg # of iterations =  2.5

     total cpu time spent up to now is     1001.3 secs

     total energy              =    -313.91389533 Ry
     Harris-Foulkes estimate   =    -313.91389534 Ry
     estimated scf accuracy    <       0.00000004 Ry

     total magnetization       =     0.00 Bohr mag/cell
     absolute magnetization    =     0.00 Bohr mag/cell

     iteration # 13     ecut=    50.00 Ry     beta= 0.70
     Davidson diagonalization with overlap
     ethr =  1.96E-10,  avg # of iterations =  3.8

     Magnetic moment per site:
     atom:    1    charge:    9.6689    magn:    0.0005    constr:    0.0000
     atom:    2    charge:    9.6689    magn:    0.0005    constr:    0.0000

     total cpu time spent up to now is     1016.1 secs

     End of self-consistent calculation

     Number of k-points >= 100: set verbosity='high' to print the bands.

     the Fermi energy is     9.3160 ev

!    total energy              =    -313.91389532 Ry
     Harris-Foulkes estimate   =    -313.91389533 Ry
     estimated scf accuracy    <          9.9E-09 Ry

     total all-electron energy =     -3056.891462 Ry

     The total energy is the sum of the following terms:

     one-electron contribution =     -73.10392835 Ry
     hartree contribution      =      41.89790794 Ry
     xc contribution           =     -34.91120007 Ry
     ewald contribution        =    -127.29383153 Ry
     one-center paw contrib.   =    -120.50195158 Ry
     smearing contrib. (-TS)   =      -0.00089172 Ry

     total magnetization       =     0.00 Bohr mag/cell
     absolute magnetization    =     0.00 Bohr mag/cell

     convergence has been achieved in  13 iterations

     Forces acting on atoms (cartesian axes, Ry/au):

     atom    1 type  1   force =     0.00000000    0.00000000    0.00000000
     atom    2 type  1   force =     0.00000000    0.00000000    0.00000000

     Total force =     0.000000     Total SCF correction =     0.000000


     Computing stress (Cartesian axis) and pressure

          total   stress  (Ry/bohr**3)                   (kbar)     P=   -0.66
  -0.00000183  -0.00000000  -0.00000000         -0.27     -0.00     -0.00
  -0.00000000  -0.00000183  -0.00000000         -0.00     -0.27     -0.00
  -0.00000000  -0.00000000  -0.00000986         -0.00     -0.00     -1.45


     number of scf cycles    =   4
     number of bfgs steps    =   3

     enthalpy old            =    -313.9138891017 Ry
     enthalpy new            =    -313.9138953240 Ry

     CASE: enthalpy_new < enthalpy_old

     new trust radius        =       0.0033945325 bohr
     new conv_thr            =       0.0000000100 Ry

     new unit-cell volume =    330.18068 a.u.^3 (    48.92773 Ang^3 )
     density =      3.05142 g/cm^3

CELL_PARAMETERS (alat=  6.27135853)
   0.997356317  -0.000000000   0.000000000
  -0.498678159   0.863735907  -0.000000000
  -0.000000000  -0.000000000   1.553944299

ATOMIC_POSITIONS (crystal)
Sc       0.666666667   0.333333333   0.250000000
Sc       0.333333333   0.666666667   0.750000000



     Writing output data file pw.save/
     NEW-OLD atomic charge density approx. for the potential

     Check: negative core charge=   -0.000012
     extrapolated charge   21.96102, renormalised to   22.00000

     total cpu time spent up to now is     1027.9 secs

     Self-consistent Calculation

     iteration #  1     ecut=    50.00 Ry     beta= 0.70
     Davidson diagonalization with overlap
     ethr =  1.00E-06,  avg # of iterations =  4.5

     total cpu time spent up to now is     1048.5 secs

     total energy              =    -313.91354591 Ry
     Harris-Foulkes estimate   =    -313.99867786 Ry
     estimated scf accuracy    <       0.00024299 Ry

     total magnetization       =     0.00 Bohr mag/cell
     absolute magnetization    =     0.00 Bohr mag/cell

     iteration #  2     ecut=    50.00 Ry     beta= 0.70
     Davidson diagonalization with overlap
     ethr =  1.10E-06,  avg # of iterations =  4.5

     total cpu time spent up to now is     1070.7 secs

     total energy              =    -313.91388035 Ry
     Harris-Foulkes estimate   =    -313.91412064 Ry
     estimated scf accuracy    <       0.00056920 Ry

     total magnetization       =     0.00 Bohr mag/cell
     absolute magnetization    =     0.00 Bohr mag/cell

     iteration #  3     ecut=    50.00 Ry     beta= 0.70
     Davidson diagonalization with overlap
     ethr =  1.10E-06,  avg # of iterations =  2.8

     total cpu time spent up to now is     1084.8 secs

     total energy              =    -313.91389166 Ry
     Harris-Foulkes estimate   =    -313.91391650 Ry
     estimated scf accuracy    <       0.00012558 Ry

     total magnetization       =     0.00 Bohr mag/cell
     absolute magnetization    =     0.00 Bohr mag/cell

     iteration #  4     ecut=    50.00 Ry     beta= 0.70
     Davidson diagonalization with overlap
     ethr =  5.71E-07,  avg # of iterations =  3.8

     total cpu time spent up to now is     1099.7 secs

     total energy              =    -313.91389122 Ry
     Harris-Foulkes estimate   =    -313.91390787 Ry
     estimated scf accuracy    <       0.00004697 Ry

     total magnetization       =     0.00 Bohr mag/cell
     absolute magnetization    =     0.00 Bohr mag/cell

     iteration #  5     ecut=    50.00 Ry     beta= 0.70
     Davidson diagonalization with overlap
     ethr =  2.13E-07,  avg # of iterations =  3.3

     total cpu time spent up to now is     1113.8 secs

     total energy              =    -313.91389257 Ry
     Harris-Foulkes estimate   =    -313.91389697 Ry
     estimated scf accuracy    <       0.00001098 Ry

     total magnetization       =     0.00 Bohr mag/cell
     absolute magnetization    =     0.00 Bohr mag/cell

     iteration #  6     ecut=    50.00 Ry     beta= 0.70
     Davidson diagonalization with overlap
     ethr =  4.99E-08,  avg # of iterations =  4.4

     total cpu time spent up to now is     1130.5 secs

     total energy              =    -313.91389627 Ry
     Harris-Foulkes estimate   =    -313.91389577 Ry
     estimated scf accuracy    <       0.00000093 Ry

     total magnetization       =     0.00 Bohr mag/cell
     absolute magnetization    =     0.00 Bohr mag/cell

     iteration #  7     ecut=    50.00 Ry     beta= 0.70
     Davidson diagonalization with overlap
     ethr =  4.24E-09,  avg # of iterations =  3.8

     total cpu time spent up to now is     1147.0 secs

     total energy              =    -313.91389636 Ry
     Harris-Foulkes estimate   =    -313.91389654 Ry
     estimated scf accuracy    <       0.00000155 Ry

     total magnetization       =     0.00 Bohr mag/cell
     absolute magnetization    =     0.00 Bohr mag/cell

     iteration #  8     ecut=    50.00 Ry     beta= 0.70
     Davidson diagonalization with overlap
     ethr =  4.24E-09,  avg # of iterations =  1.0

     total cpu time spent up to now is     1158.4 secs

     total energy              =    -313.91389587 Ry
     Harris-Foulkes estimate   =    -313.91389637 Ry
     estimated scf accuracy    <       0.00000126 Ry

     total magnetization       =     0.00 Bohr mag/cell
     absolute magnetization    =     0.00 Bohr mag/cell

     iteration #  9     ecut=    50.00 Ry     beta= 0.70
     Davidson diagonalization with overlap
     ethr =  4.24E-09,  avg # of iterations =  1.6

     total cpu time spent up to now is     1170.5 secs

     total energy              =    -313.91389564 Ry
     Harris-Foulkes estimate   =    -313.91389593 Ry
     estimated scf accuracy    <       0.00000042 Ry

     total magnetization       =     0.00 Bohr mag/cell
     absolute magnetization    =     0.00 Bohr mag/cell

     iteration # 10     ecut=    50.00 Ry     beta= 0.70
     Davidson diagonalization with overlap
     ethr =  1.92E-09,  avg # of iterations =  4.0

     total cpu time spent up to now is     1188.3 secs

     total energy              =    -313.91389585 Ry
     Harris-Foulkes estimate   =    -313.91389586 Ry
     estimated scf accuracy    <       0.00000004 Ry

     total magnetization       =     0.00 Bohr mag/cell
     absolute magnetization    =     0.00 Bohr mag/cell

     iteration # 11     ecut=    50.00 Ry     beta= 0.70
     Davidson diagonalization with overlap
     ethr =  1.60E-10,  avg # of iterations =  3.3

     total cpu time spent up to now is     1202.6 secs

     total energy              =    -313.91389585 Ry
     Harris-Foulkes estimate   =    -313.91389585 Ry
     estimated scf accuracy    <       0.00000002 Ry

     total magnetization       =     0.00 Bohr mag/cell
     absolute magnetization    =     0.00 Bohr mag/cell

     iteration # 12     ecut=    50.00 Ry     beta= 0.70
     Davidson diagonalization with overlap
     ethr =  1.01E-10,  avg # of iterations =  1.1

     total cpu time spent up to now is     1214.2 secs

     total energy              =    -313.91389584 Ry
     Harris-Foulkes estimate   =    -313.91389585 Ry
     estimated scf accuracy    <       0.00000002 Ry

     total magnetization       =     0.00 Bohr mag/cell
     absolute magnetization    =     0.00 Bohr mag/cell

     iteration # 13     ecut=    50.00 Ry     beta= 0.70
     Davidson diagonalization with overlap
     ethr =  9.65E-11,  avg # of iterations =  4.1

     Magnetic moment per site:
     atom:    1    charge:    9.6684    magn:    0.0004    constr:    0.0000
     atom:    2    charge:    9.6684    magn:    0.0004    constr:    0.0000

     total cpu time spent up to now is     1232.2 secs

     End of self-consistent calculation

     Number of k-points >= 100: set verbosity='high' to print the bands.

     the Fermi energy is     9.3361 ev

!    total energy              =    -313.91389585 Ry
     Harris-Foulkes estimate   =    -313.91389585 Ry
     estimated scf accuracy    <          3.0E-09 Ry

     total all-electron energy =     -3056.891463 Ry

     The total energy is the sum of the following terms:

     one-electron contribution =     -72.99214349 Ry
     hartree contribution      =      41.86269892 Ry
     xc contribution           =     -34.91346106 Ry
     ewald contribution        =    -127.36817530 Ry
     one-center paw contrib.   =    -120.50192860 Ry
     smearing contrib. (-TS)   =      -0.00088632 Ry

     total magnetization       =     0.00 Bohr mag/cell
     absolute magnetization    =     0.00 Bohr mag/cell

     convergence has been achieved in  13 iterations

     Forces acting on atoms (cartesian axes, Ry/au):

     atom    1 type  1   force =    -0.00000000    0.00000000    0.00000000
     atom    2 type  1   force =     0.00000000   -0.00000000   -0.00000000

     Total force =     0.000000     Total SCF correction =     0.000000


     Computing stress (Cartesian axis) and pressure

          total   stress  (Ry/bohr**3)                   (kbar)     P=    0.38
   0.00000459  -0.00000000  -0.00000000          0.68     -0.00     -0.00
  -0.00000000   0.00000459   0.00000000         -0.00      0.68      0.00
  -0.00000000   0.00000000  -0.00000137         -0.00      0.00     -0.20


     number of scf cycles    =   5
     number of bfgs steps    =   4

     enthalpy old            =    -313.9138953240 Ry
     enthalpy new            =    -313.9138958476 Ry

     CASE: enthalpy_new < enthalpy_old

     new trust radius        =       0.0005456112 bohr
     new conv_thr            =       0.0000000100 Ry

     new unit-cell volume =    330.30453 a.u.^3 (    48.94608 Ang^3 )
     density =      3.05028 g/cm^3

CELL_PARAMETERS (alat=  6.27135853)
   0.997506054  -0.000000000  -0.000000000
  -0.498753027   0.863865583  -0.000000000
  -0.000000000  -0.000000000   1.554060512

ATOMIC_POSITIONS (crystal)
Sc       0.666666667   0.333333333   0.250000000
Sc       0.333333333   0.666666667   0.750000000



     Writing output data file pw.save/
     NEW-OLD atomic charge density approx. for the potential

     Check: negative core charge=   -0.000012
     extrapolated charge   22.00825, renormalised to   22.00000

     total cpu time spent up to now is     1244.1 secs

     Self-consistent Calculation

     iteration #  1     ecut=    50.00 Ry     beta= 0.70
     Davidson diagonalization with overlap
     ethr =  1.00E-06,  avg # of iterations =  2.0

     Threshold (ethr) on eigenvalues was too large:
     Diagonalizing with lowered threshold

     Davidson diagonalization with overlap
     ethr =  2.75E-08,  avg # of iterations =  4.4

     total cpu time spent up to now is     1273.3 secs

     total energy              =    -313.91388275 Ry
     Harris-Foulkes estimate   =    -313.89596868 Ry
     estimated scf accuracy    <       0.00000905 Ry

     total magnetization       =     0.00 Bohr mag/cell
     absolute magnetization    =     0.00 Bohr mag/cell

     iteration #  2     ecut=    50.00 Ry     beta= 0.70
     Davidson diagonalization with overlap
     ethr =  4.11E-08,  avg # of iterations =  4.5

     total cpu time spent up to now is     1293.1 secs

     total energy              =    -313.91389574 Ry
     Harris-Foulkes estimate   =    -313.91390501 Ry
     estimated scf accuracy    <       0.00002226 Ry

     total magnetization       =     0.00 Bohr mag/cell
     absolute magnetization    =     0.00 Bohr mag/cell

     iteration #  3     ecut=    50.00 Ry     beta= 0.70
     Davidson diagonalization with overlap
     ethr =  4.11E-08,  avg # of iterations =  2.8

     total cpu time spent up to now is     1307.4 secs

     total energy              =    -313.91389618 Ry
     Harris-Foulkes estimate   =    -313.91389722 Ry
     estimated scf accuracy    <       0.00000472 Ry

     total magnetization       =     0.00 Bohr mag/cell
     absolute magnetization    =     0.00 Bohr mag/cell

     iteration #  4     ecut=    50.00 Ry     beta= 0.70
     Davidson diagonalization with overlap
     ethr =  2.15E-08,  avg # of iterations =  3.5

     total cpu time spent up to now is     1321.8 secs

     total energy              =    -313.91389569 Ry
     Harris-Foulkes estimate   =    -313.91389670 Ry
     estimated scf accuracy    <       0.00000186 Ry

     total magnetization       =     0.00 Bohr mag/cell
     absolute magnetization    =     0.00 Bohr mag/cell

     iteration #  5     ecut=    50.00 Ry     beta= 0.70
     Davidson diagonalization with overlap
     ethr =  8.47E-09,  avg # of iterations =  4.1

     Magnetic moment per site:
     atom:    1    charge:    9.6686    magn:    0.0003    constr:    0.0000
     atom:    2    charge:    9.6686    magn:    0.0003    constr:    0.0000

     total cpu time spent up to now is     1338.0 secs

     End of self-consistent calculation

     Number of k-points >= 100: set verbosity='high' to print the bands.

     the Fermi energy is     9.3317 ev

!    total energy              =    -313.91389624 Ry
     Harris-Foulkes estimate   =    -313.91389624 Ry
     estimated scf accuracy    <          7.3E-09 Ry

     total all-electron energy =     -3056.891463 Ry

     The total energy is the sum of the following terms:

     one-electron contribution =     -73.01770179 Ry
     hartree contribution      =      41.87210254 Ry
     xc contribution           =     -34.91332620 Ry
     ewald contribution        =    -127.35213364 Ry
     one-center paw contrib.   =    -120.50195077 Ry
     smearing contrib. (-TS)   =      -0.00088638 Ry

     total magnetization       =     0.00 Bohr mag/cell
     absolute magnetization    =     0.00 Bohr mag/cell

     convergence has been achieved in   5 iterations

     Forces acting on atoms (cartesian axes, Ry/au):

     atom    1 type  1   force =     0.00000000   -0.00000000   -0.00000000
     atom    2 type  1   force =    -0.00000000    0.00000000    0.00000000

     Total force =     0.000000     Total SCF correction =     0.000000


     Computing stress (Cartesian axis) and pressure

          total   stress  (Ry/bohr**3)                   (kbar)     P=    0.62
   0.00000610   0.00000000   0.00000000          0.90      0.00      0.00
  -0.00000000   0.00000610   0.00000000         -0.00      0.90      0.00
   0.00000000   0.00000000   0.00000040          0.00      0.00      0.06


     number of scf cycles    =   6
     number of bfgs steps    =   5

     enthalpy old            =    -313.9138958476 Ry
     enthalpy new            =    -313.9138962429 Ry

     CASE: enthalpy_new < enthalpy_old


     WARNING: bfgs curvature condition failed, Theta= 0.549
     uphill step: resetting bfgs history

     new trust radius        =       0.0005542349 bohr
     new conv_thr            =       0.0000000100 Ry

     new unit-cell volume =    330.40855 a.u.^3 (    48.96150 Ang^3 )
     density =      3.04932 g/cm^3

CELL_PARAMETERS (alat=  6.27135853)
   0.997658151  -0.000000000   0.000000000
  -0.498829076   0.863997303  -0.000000000
  -0.000000000  -0.000000000   1.554075979

ATOMIC_POSITIONS (crystal)
Sc       0.666666667   0.333333333   0.250000000
Sc       0.333333333   0.666666667   0.750000000



     Writing output data file pw.save/
     NEW-OLD atomic charge density approx. for the potential

     Check: negative core charge=   -0.000012
     extrapolated charge   22.00692, renormalised to   22.00000

     total cpu time spent up to now is     1349.9 secs

     Self-consistent Calculation

     iteration #  1     ecut=    50.00 Ry     beta= 0.70
     Davidson diagonalization with overlap
     ethr =  1.00E-06,  avg # of iterations =  2.0

     Threshold (ethr) on eigenvalues was too large:
     Diagonalizing with lowered threshold

     Davidson diagonalization with overlap
     ethr =  2.29E-08,  avg # of iterations =  4.4

     total cpu time spent up to now is     1379.1 secs

     total energy              =    -313.91388600 Ry
     Harris-Foulkes estimate   =    -313.89883936 Ry
     estimated scf accuracy    <       0.00000775 Ry

     total magnetization       =     0.00 Bohr mag/cell
     absolute magnetization    =     0.00 Bohr mag/cell

     iteration #  2     ecut=    50.00 Ry     beta= 0.70
     Davidson diagonalization with overlap
     ethr =  3.52E-08,  avg # of iterations =  4.4

     total cpu time spent up to now is     1398.7 secs

     total energy              =    -313.91389599 Ry
     Harris-Foulkes estimate   =    -313.91390322 Ry
     estimated scf accuracy    <       0.00001685 Ry

     total magnetization       =     0.00 Bohr mag/cell
     absolute magnetization    =     0.00 Bohr mag/cell

     iteration #  3     ecut=    50.00 Ry     beta= 0.70
     Davidson diagonalization with overlap
     ethr =  3.52E-08,  avg # of iterations =  2.8

     total cpu time spent up to now is     1412.6 secs

     total energy              =    -313.91389640 Ry
     Harris-Foulkes estimate   =    -313.91389711 Ry
     estimated scf accuracy    <       0.00000358 Ry

     total magnetization       =     0.00 Bohr mag/cell
     absolute magnetization    =     0.00 Bohr mag/cell

     iteration #  4     ecut=    50.00 Ry     beta= 0.70
     Davidson diagonalization with overlap
     ethr =  1.63E-08,  avg # of iterations =  3.8

     total cpu time spent up to now is     1428.1 secs

     total energy              =    -313.91389622 Ry
     Harris-Foulkes estimate   =    -313.91389692 Ry
     estimated scf accuracy    <       0.00000127 Ry

     total magnetization       =     0.00 Bohr mag/cell
     absolute magnetization    =     0.00 Bohr mag/cell

     iteration #  5     ecut=    50.00 Ry     beta= 0.70
     Davidson diagonalization with overlap
     ethr =  5.78E-09,  avg # of iterations =  4.0

     Magnetic moment per site:
     atom:    1    charge:    9.6687    magn:    0.0003    constr:    0.0000
     atom:    2    charge:    9.6687    magn:    0.0003    constr:    0.0000

     total cpu time spent up to now is     1444.8 secs

     End of self-consistent calculation

     Number of k-points >= 100: set verbosity='high' to print the bands.

     the Fermi energy is     9.3281 ev

!    total energy              =    -313.91389660 Ry
     Harris-Foulkes estimate   =    -313.91389660 Ry
     estimated scf accuracy    <          4.1E-09 Ry

     total all-electron energy =     -3056.891463 Ry

     The total energy is the sum of the following terms:

     one-electron contribution =     -73.03815098 Ry
     hartree contribution      =      41.87853328 Ry
     xc contribution           =     -34.91290108 Ry
     ewald contribution        =    -127.33853890 Ry
     one-center paw contrib.   =    -120.50195294 Ry
     smearing contrib. (-TS)   =      -0.00088598 Ry

     total magnetization       =     0.00 Bohr mag/cell
     absolute magnetization    =     0.00 Bohr mag/cell

     convergence has been achieved in   5 iterations

     Forces acting on atoms (cartesian axes, Ry/au):

     atom    1 type  1   force =     0.00000000    0.00000000    0.00000000
     atom    2 type  1   force =    -0.00000000   -0.00000000   -0.00000000

     Total force =     0.000000     Total SCF correction =     0.000000


     Computing stress (Cartesian axis) and pressure

          total   stress  (Ry/bohr**3)                   (kbar)     P=    0.40
   0.00000431   0.00000000   0.00000000          0.63      0.00      0.00
   0.00000000   0.00000431   0.00000000          0.00      0.63      0.00
   0.00000000   0.00000000  -0.00000050          0.00      0.00     -0.07


     number of scf cycles    =   7
     number of bfgs steps    =   6

     enthalpy old            =    -313.9138962429 Ry
     enthalpy new            =    -313.9138966002 Ry

     CASE: enthalpy_new < enthalpy_old

     new trust radius        =       0.0006096614 bohr
     new conv_thr            =       0.0000000100 Ry

     new unit-cell volume =    330.51336 a.u.^3 (    48.97703 Ang^3 )
     density =      3.04835 g/cm^3

CELL_PARAMETERS (alat=  6.27135853)
   0.997825458  -0.000000000   0.000000000
  -0.498912729   0.864142196  -0.000000000
  -0.000000000  -0.000000000   1.554047671

ATOMIC_POSITIONS (crystal)
Sc       0.666666667   0.333333333   0.250000000
Sc       0.333333333   0.666666667   0.750000000



     Writing output data file pw.save/
     NEW-OLD atomic charge density approx. for the potential

     Check: negative core charge=   -0.000012
     extrapolated charge   22.00697, renormalised to   22.00000

     total cpu time spent up to now is     1457.0 secs

     Self-consistent Calculation

     iteration #  1     ecut=    50.00 Ry     beta= 0.70
     Davidson diagonalization with overlap
     ethr =  1.00E-06,  avg # of iterations =  2.0

     Threshold (ethr) on eigenvalues was too large:
     Diagonalizing with lowered threshold

     Davidson diagonalization with overlap
     ethr =  2.22E-08,  avg # of iterations =  4.6

     total cpu time spent up to now is     1486.5 secs

     total energy              =    -313.91388599 Ry
     Harris-Foulkes estimate   =    -313.89872668 Ry
     estimated scf accuracy    <       0.00000782 Ry

     total magnetization       =     0.00 Bohr mag/cell
     absolute magnetization    =     0.00 Bohr mag/cell

     iteration #  2     ecut=    50.00 Ry     beta= 0.70
     Davidson diagonalization with overlap
     ethr =  3.56E-08,  avg # of iterations =  4.5

     total cpu time spent up to now is     1506.1 secs

     total energy              =    -313.91389624 Ry
     Harris-Foulkes estimate   =    -313.91390365 Ry
     estimated scf accuracy    <       0.00001737 Ry

     total magnetization       =     0.00 Bohr mag/cell
     absolute magnetization    =     0.00 Bohr mag/cell

     iteration #  3     ecut=    50.00 Ry     beta= 0.70
     Davidson diagonalization with overlap
     ethr =  3.56E-08,  avg # of iterations =  2.8

     total cpu time spent up to now is     1520.0 secs

     total energy              =    -313.91389664 Ry
     Harris-Foulkes estimate   =    -313.91389738 Ry
     estimated scf accuracy    <       0.00000373 Ry

     total magnetization       =     0.00 Bohr mag/cell
     absolute magnetization    =     0.00 Bohr mag/cell

     iteration #  4     ecut=    50.00 Ry     beta= 0.70
     Davidson diagonalization with overlap
     ethr =  1.70E-08,  avg # of iterations =  3.7

     total cpu time spent up to now is     1534.7 secs

     total energy              =    -313.91389636 Ry
     Harris-Foulkes estimate   =    -313.91389717 Ry
     estimated scf accuracy    <       0.00000133 Ry

     total magnetization       =     0.00 Bohr mag/cell
     absolute magnetization    =     0.00 Bohr mag/cell

     iteration #  5     ecut=    50.00 Ry     beta= 0.70
     Davidson diagonalization with overlap
     ethr =  6.05E-09,  avg # of iterations =  4.0

     total cpu time spent up to now is     1552.2 secs

     total energy              =    -313.91389688 Ry
     Harris-Foulkes estimate   =    -313.91389686 Ry
     estimated scf accuracy    <       0.00000001 Ry

     total magnetization       =     0.00 Bohr mag/cell
     absolute magnetization    =     0.00 Bohr mag/cell

     iteration #  6     ecut=    50.00 Ry     beta= 0.70
     Davidson diagonalization with overlap
     ethr =  6.62E-11,  avg # of iterations =  4.9

     total cpu time spent up to now is     1573.4 secs

     total energy              =    -313.91389690 Ry
     Harris-Foulkes estimate   =    -313.91389690 Ry
     estimated scf accuracy    <       0.00000007 Ry

     total magnetization       =     0.00 Bohr mag/cell
     absolute magnetization    =     0.00 Bohr mag/cell

     iteration #  7     ecut=    50.00 Ry     beta= 0.70
     Davidson diagonalization with overlap
     ethr =  6.62E-11,  avg # of iterations =  1.0

     total cpu time spent up to now is     1584.8 secs

     total energy              =    -313.91389686 Ry
     Harris-Foulkes estimate   =    -313.91389690 Ry
     estimated scf accuracy    <       0.00000006 Ry

     total magnetization       =     0.00 Bohr mag/cell
     absolute magnetization    =     0.00 Bohr mag/cell

     iteration #  8     ecut=    50.00 Ry     beta= 0.70
     Davidson diagonalization with overlap
     ethr =  6.62E-11,  avg # of iterations =  4.1

     Magnetic moment per site:
     atom:    1    charge:    9.6687    magn:    0.0002    constr:    0.0000
     atom:    2    charge:    9.6687    magn:    0.0002    constr:    0.0000

     total cpu time spent up to now is     1603.3 secs

     End of self-consistent calculation

     Number of k-points >= 100: set verbosity='high' to print the bands.

     the Fermi energy is     9.3244 ev

!    total energy              =    -313.91389687 Ry
     Harris-Foulkes estimate   =    -313.91389687 Ry
     estimated scf accuracy    <          3.7E-10 Ry

     total all-electron energy =     -3056.891464 Ry

     The total energy is the sum of the following terms:

     one-electron contribution =     -73.05821071 Ry
     hartree contribution      =      41.88423557 Ry
     xc contribution           =     -34.91231183 Ry
     ewald contribution        =    -127.32477878 Ry
     one-center paw contrib.   =    -120.50194579 Ry
     smearing contrib. (-TS)   =      -0.00088532 Ry

     total magnetization       =     0.00 Bohr mag/cell
     absolute magnetization    =     0.00 Bohr mag/cell

     convergence has been achieved in   8 iterations

     Forces acting on atoms (cartesian axes, Ry/au):

     atom    1 type  1   force =     0.00000000    0.00000000    0.00000000
     atom    2 type  1   force =    -0.00000000   -0.00000000   -0.00000000

     Total force =     0.000000     Total SCF correction =     0.000000


     Computing stress (Cartesian axis) and pressure

          total   stress  (Ry/bohr**3)                   (kbar)     P=   -0.05
   0.00000090  -0.00000000  -0.00000000          0.13     -0.00     -0.00
  -0.00000000   0.00000090  -0.00000000         -0.00      0.13     -0.00
  -0.00000000  -0.00000000  -0.00000286         -0.00     -0.00     -0.42


     bfgs converged in   8 scf cycles and   7 bfgs steps
     (criteria: energy <  1.0E-04 Ry, force <  1.0E-03Ry/Bohr, cell <  5.0E-01kbar)

     End of BFGS Geometry Optimization

     Final enthalpy =    -313.9138968721 Ry
Begin final coordinates
     new unit-cell volume =    330.51336 a.u.^3 (    48.97703 Ang^3 )
     density =      3.04835 g/cm^3

CELL_PARAMETERS (alat=  6.27135853)
   0.997825458  -0.000000000   0.000000000
  -0.498912729   0.864142196  -0.000000000
  -0.000000000  -0.000000000   1.554047671

ATOMIC_POSITIONS (crystal)
Sc       0.666666667   0.333333333   0.250000000
Sc       0.333333333   0.666666667   0.750000000
End final coordinates



     Writing output data file pw.save/

     A final scf calculation at the relaxed structure.
     The G-vectors are recalculated for the final unit cell
     Results may differ from those at the preceding step.

     Parallelization info
     --------------------
     sticks:   dense  smooth     PW     G-vecs:    dense   smooth      PW
     Min         534     273     81                22468     7877    1411
     Max         535     274     82                22475     7880    1416
     Sum        1069     547    163                44943    15757    2827



     bravais-lattice index     =            0
     lattice parameter (alat)  =       6.2714  a.u.
     unit-cell volume          =     330.5134 (a.u.)^3
     number of atoms/cell      =            2
     number of atomic types    =            1
     number of electrons       =        22.00
     number of Kohn-Sham states=           15
     kinetic-energy cutoff     =      50.0000  Ry
     charge density cutoff     =     402.0000  Ry
     convergence threshold     =      1.0E-08
     mixing beta               =       0.7000
     number of iterations used =            8  plain     mixing
     Exchange-correlation      = SLA PW PBX PBC ( 1  4  3  4 0 0)

     celldm(1)=   6.271359  celldm(2)=   0.000000  celldm(3)=   0.000000
     celldm(4)=   0.000000  celldm(5)=   0.000000  celldm(6)=   0.000000

     crystal axes: (cart. coord. in units of alat)
               a(1) = (   0.997825  -0.000000   0.000000 )  
               a(2) = (  -0.498913   0.864142  -0.000000 )  
               a(3) = (  -0.000000  -0.000000   1.554048 )  

     reciprocal axes: (cart. coord. in units 2 pi/alat)
               b(1) = (  1.002179  0.578608  0.000000 )  
               b(2) = (  0.000000  1.157217  0.000000 )  
               b(3) = (  0.000000  0.000000  0.643481 )  


     PseudoPot. # 1 for Sc read from file:
     ./potentials/Sc.pbe-spn-kjpaw_psl.1.0.0.UPF
     MD5 check sum: d5ac433e587a0148d610ca85a1be5559
     Pseudo is Projector augmented-wave + core cor, Zval = 11.0
     Generated using "atomic" code by A. Dal Corso v.6.2.2
     Shape of augmentation charge: PSQ
     Using radial grid of 1173 points,  6 beta functions with: 
                l(1) =   0
                l(2) =   0
                l(3) =   1
                l(4) =   1
                l(5) =   2
                l(6) =   2
     Q(r) pseudized with 0 coefficients 


     atomic species   valence    mass     pseudopotential
        Sc            11.00    44.95500     Sc( 1.00)

     Starting magnetic structure 
     atomic species   magnetization
        Sc           0.000

     24 Sym. Ops., with inversion, found (12 have fractional translation)



   Cartesian axes

     site n.     atom                  positions (alat units)
         1           Sc  tau(   1) = (   0.4989127   0.2880474   0.3885119  )
         2           Sc  tau(   2) = (  -0.0000000   0.5760948   1.1655358  )

     number of k points=    90  Methfessel-Paxton smearing, width (Ry)=  0.0200
                       cart. coord. in units 2pi/alat
        k(    1) = (   0.0501090   0.0867913   0.0536234), wk =   0.0066667
        k(    2) = (   0.0501090   0.0867913   0.1608702), wk =   0.0066667
        k(    3) = (   0.0501090   0.0867913   0.2681170), wk =   0.0066667
        k(    4) = (   0.0501090   0.2025130   0.0536234), wk =   0.0133333
        k(    5) = (   0.0501090   0.2025130   0.1608702), wk =   0.0133333
        k(    6) = (   0.0501090   0.2025130   0.2681170), wk =   0.0133333
        k(    7) = (   0.0501090   0.3182347   0.0536234), wk =   0.0133333
        k(    8) = (   0.0501090   0.3182347   0.1608702), wk =   0.0133333
        k(    9) = (   0.0501090   0.3182347   0.2681170), wk =   0.0133333
        k(   10) = (   0.0501090   0.4339564   0.0536234), wk =   0.0133333
        k(   11) = (   0.0501090   0.4339564   0.1608702), wk =   0.0133333
        k(   12) = (   0.0501090   0.4339564   0.2681170), wk =   0.0133333
        k(   13) = (   0.0501090   0.5496781   0.0536234), wk =   0.0133333
        k(   14) = (   0.0501090   0.5496781   0.1608702), wk =   0.0133333
        k(   15) = (   0.0501090   0.5496781   0.2681170), wk =   0.0133333
        k(   16) = (   0.0501090  -0.4918172   0.0536234), wk =   0.0133333
        k(   17) = (   0.0501090  -0.4918172   0.1608702), wk =   0.0133333
        k(   18) = (   0.0501090  -0.4918172   0.2681170), wk =   0.0133333
        k(   19) = (   0.0501090  -0.3760955   0.0536234), wk =   0.0133333
        k(   20) = (   0.0501090  -0.3760955   0.1608702), wk =   0.0133333
        k(   21) = (   0.0501090  -0.3760955   0.2681170), wk =   0.0133333
        k(   22) = (   0.0501090  -0.2603738   0.0536234), wk =   0.0133333
        k(   23) = (   0.0501090  -0.2603738   0.1608702), wk =   0.0133333
        k(   24) = (   0.0501090  -0.2603738   0.2681170), wk =   0.0133333
        k(   25) = (   0.0501090  -0.1446521   0.0536234), wk =   0.0133333
        k(   26) = (   0.0501090  -0.1446521   0.1608702), wk =   0.0133333
        k(   27) = (   0.0501090  -0.1446521   0.2681170), wk =   0.0133333
        k(   28) = (   0.0501090  -0.0289304   0.0536234), wk =   0.0066667
        k(   29) = (   0.0501090  -0.0289304   0.1608702), wk =   0.0066667
        k(   30) = (   0.0501090  -0.0289304   0.2681170), wk =   0.0066667
        k(   31) = (   0.1503269   0.2603738   0.0536234), wk =   0.0066667
        k(   32) = (   0.1503269   0.2603738   0.1608702), wk =   0.0066667
        k(   33) = (   0.1503269   0.2603738   0.2681170), wk =   0.0066667
        k(   34) = (   0.1503269   0.3760955   0.0536234), wk =   0.0133333
        k(   35) = (   0.1503269   0.3760955   0.1608702), wk =   0.0133333
        k(   36) = (   0.1503269   0.3760955   0.2681170), wk =   0.0133333
        k(   37) = (   0.1503269   0.4918172   0.0536234), wk =   0.0133333
        k(   38) = (   0.1503269   0.4918172   0.1608702), wk =   0.0133333
        k(   39) = (   0.1503269   0.4918172   0.2681170), wk =   0.0133333
        k(   40) = (   0.1503269   0.6075389   0.0536234), wk =   0.0133333
        k(   41) = (   0.1503269   0.6075389   0.1608702), wk =   0.0133333
        k(   42) = (   0.1503269   0.6075389   0.2681170), wk =   0.0133333
        k(   43) = (   0.1503269  -0.4339564   0.0536234), wk =   0.0133333
        k(   44) = (   0.1503269  -0.4339564   0.1608702), wk =   0.0133333
        k(   45) = (   0.1503269  -0.4339564   0.2681170), wk =   0.0133333
        k(   46) = (   0.1503269  -0.3182347   0.0536234), wk =   0.0133333
        k(   47) = (   0.1503269  -0.3182347   0.1608702), wk =   0.0133333
        k(   48) = (   0.1503269  -0.3182347   0.2681170), wk =   0.0133333
        k(   49) = (   0.1503269  -0.2025130   0.0536234), wk =   0.0133333
        k(   50) = (   0.1503269  -0.2025130   0.1608702), wk =   0.0133333
        k(   51) = (   0.1503269  -0.2025130   0.2681170), wk =   0.0133333
        k(   52) = (   0.1503269  -0.0867913   0.0536234), wk =   0.0066667
        k(   53) = (   0.1503269  -0.0867913   0.1608702), wk =   0.0066667
        k(   54) = (   0.1503269  -0.0867913   0.2681170), wk =   0.0066667
        k(   55) = (   0.2505448   0.4339564   0.0536234), wk =   0.0066667
        k(   56) = (   0.2505448   0.4339564   0.1608702), wk =   0.0066667
        k(   57) = (   0.2505448   0.4339564   0.2681170), wk =   0.0066667
        k(   58) = (   0.2505448   0.5496781   0.0536234), wk =   0.0133333
        k(   59) = (   0.2505448   0.5496781   0.1608702), wk =   0.0133333
        k(   60) = (   0.2505448   0.5496781   0.2681170), wk =   0.0133333
        k(   61) = (   0.2505448   0.6653997   0.0536234), wk =   0.0133333
        k(   62) = (   0.2505448   0.6653997   0.1608702), wk =   0.0133333
        k(   63) = (   0.2505448   0.6653997   0.2681170), wk =   0.0133333
        k(   64) = (   0.2505448  -0.3760955   0.0536234), wk =   0.0133333
        k(   65) = (   0.2505448  -0.3760955   0.1608702), wk =   0.0133333
        k(   66) = (   0.2505448  -0.3760955   0.2681170), wk =   0.0133333
        k(   67) = (   0.2505448  -0.2603738   0.0536234), wk =   0.0133333
        k(   68) = (   0.2505448  -0.2603738   0.1608702), wk =   0.0133333
        k(   69) = (   0.2505448  -0.2603738   0.2681170), wk =   0.0133333
        k(   70) = (   0.2505448  -0.1446521   0.0536234), wk =   0.0066667
        k(   71) = (   0.2505448  -0.1446521   0.1608702), wk =   0.0066667
        k(   72) = (   0.2505448  -0.1446521   0.2681170), wk =   0.0066667
        k(   73) = (   0.3507627   0.6075389   0.0536234), wk =   0.0066667
        k(   74) = (   0.3507627   0.6075389   0.1608702), wk =   0.0066667
        k(   75) = (   0.3507627   0.6075389   0.2681170), wk =   0.0066667
        k(   76) = (   0.3507627   0.7232606   0.0536234), wk =   0.0133333
        k(   77) = (   0.3507627   0.7232606   0.1608702), wk =   0.0133333
        k(   78) = (   0.3507627   0.7232606   0.2681170), wk =   0.0133333
        k(   79) = (   0.3507627  -0.3182347   0.0536234), wk =   0.0133333
        k(   80) = (   0.3507627  -0.3182347   0.1608702), wk =   0.0133333
        k(   81) = (   0.3507627  -0.3182347   0.2681170), wk =   0.0133333
        k(   82) = (   0.3507627  -0.2025130   0.0536234), wk =   0.0066667
        k(   83) = (   0.3507627  -0.2025130   0.1608702), wk =   0.0066667
        k(   84) = (   0.3507627  -0.2025130   0.2681170), wk =   0.0066667
        k(   85) = (   0.4509807   0.7811214   0.0536234), wk =   0.0066667
        k(   86) = (   0.4509807   0.7811214   0.1608702), wk =   0.0066667
        k(   87) = (   0.4509807   0.7811214   0.2681170), wk =   0.0066667
        k(   88) = (   0.4509807  -0.2603738   0.0536234), wk =   0.0066667
        k(   89) = (   0.4509807  -0.2603738   0.1608702), wk =   0.0066667
        k(   90) = (   0.4509807  -0.2603738   0.2681170), wk =   0.0066667

     Dense  grid:    44943 G-vectors     FFT dimensions: (  40,  40,  64)

     Smooth grid:    15757 G-vectors     FFT dimensions: (  30,  30,  48)

     Estimated max dynamical RAM per process >     135.75 MB

     Estimated total dynamical RAM >     271.51 MB
     Generating pointlists ...

     Check: negative core charge=   -0.000012

     Initial potential from superposition of free atoms

     starting charge   21.99488, renormalised to   22.00000
     Starting wfcs are   20 randomized atomic wfcs
     Checking if some PAW data can be deallocated... 

     total cpu time spent up to now is     1619.0 secs

     Self-consistent Calculation

     iteration #  1     ecut=    50.00 Ry     beta= 0.70
     Davidson diagonalization with overlap
     c_bands:  1 eigenvalues not converged
     c_bands:  2 eigenvalues not converged
     c_bands:  3 eigenvalues not converged
     c_bands:  1 eigenvalues not converged
     c_bands:  3 eigenvalues not converged
     c_bands:  2 eigenvalues not converged
     c_bands:  2 eigenvalues not converged
     c_bands:  3 eigenvalues not converged
     c_bands:  2 eigenvalues not converged
     c_bands:  2 eigenvalues not converged
     c_bands:  2 eigenvalues not converged
     c_bands:  1 eigenvalues not converged
     c_bands:  2 eigenvalues not converged
     c_bands:  3 eigenvalues not converged
     c_bands:  1 eigenvalues not converged
     c_bands:  3 eigenvalues not converged
     c_bands:  3 eigenvalues not converged
     c_bands:  3 eigenvalues not converged
     c_bands:  3 eigenvalues not converged
     c_bands:  1 eigenvalues not converged
     c_bands:  1 eigenvalues not converged
     c_bands:  2 eigenvalues not converged
     ethr =  1.00E-06,  avg # of iterations = 15.8

     total cpu time spent up to now is     1670.2 secs

     total energy              =    -313.90628123 Ry
     Harris-Foulkes estimate   =    -313.92094329 Ry
     estimated scf accuracy    <       0.02498294 Ry

     total magnetization       =     0.00 Bohr mag/cell
     absolute magnetization    =     0.00 Bohr mag/cell

     iteration #  2     ecut=    50.00 Ry     beta= 0.70
     Davidson diagonalization with overlap
     ethr =  1.14E-04,  avg # of iterations =  3.4

     total cpu time spent up to now is     1687.0 secs

     total energy              =    -313.91230681 Ry
     Harris-Foulkes estimate   =    -313.91567363 Ry
     estimated scf accuracy    <       0.00524498 Ry

     total magnetization       =     0.00 Bohr mag/cell
     absolute magnetization    =     0.00 Bohr mag/cell

     iteration #  3     ecut=    50.00 Ry     beta= 0.70
     Davidson diagonalization with overlap
     ethr =  2.38E-05,  avg # of iterations =  3.6

     total cpu time spent up to now is     1705.2 secs

     total energy              =    -313.91376419 Ry
     Harris-Foulkes estimate   =    -313.91375445 Ry
     estimated scf accuracy    <       0.00010522 Ry

     total magnetization       =     0.00 Bohr mag/cell
     absolute magnetization    =     0.00 Bohr mag/cell

     iteration #  4     ecut=    50.00 Ry     beta= 0.70
     Davidson diagonalization with overlap
     ethr =  4.78E-07,  avg # of iterations =  4.9

     total cpu time spent up to now is     1723.3 secs

     total energy              =    -313.91380214 Ry
     Harris-Foulkes estimate   =    -313.91380435 Ry
     estimated scf accuracy    <       0.00000360 Ry

     total magnetization       =     0.00 Bohr mag/cell
     absolute magnetization    =     0.00 Bohr mag/cell

     iteration #  5     ecut=    50.00 Ry     beta= 0.70
     Davidson diagonalization with overlap
     ethr =  1.64E-08,  avg # of iterations =  5.3

     total cpu time spent up to now is     1743.5 secs

     total energy              =    -313.91380482 Ry
     Harris-Foulkes estimate   =    -313.91380495 Ry
     estimated scf accuracy    <       0.00000025 Ry

     total magnetization       =     0.00 Bohr mag/cell
     absolute magnetization    =     0.00 Bohr mag/cell

     iteration #  6     ecut=    50.00 Ry     beta= 0.70
     Davidson diagonalization with overlap
     ethr =  1.12E-09,  avg # of iterations =  4.9

     Magnetic moment per site:
     atom:    1    charge:    9.6822    magn:    0.0007    constr:    0.0000
     atom:    2    charge:    9.6822    magn:    0.0007    constr:    0.0000

     total cpu time spent up to now is     1761.7 secs

     End of self-consistent calculation

     Number of k-points >= 100: set verbosity='high' to print the bands.

     the Fermi energy is     9.3244 ev

!    total energy              =    -313.91380489 Ry
     Harris-Foulkes estimate   =    -313.91380489 Ry
     estimated scf accuracy    <          1.3E-09 Ry

     total all-electron energy =     -3056.891372 Ry

     The total energy is the sum of the following terms:

     one-electron contribution =     -73.05835427 Ry
     hartree contribution      =      41.88465738 Ry
     xc contribution           =     -34.91242188 Ry
     ewald contribution        =    -127.32477878 Ry
     one-center paw contrib.   =    -120.50202173 Ry
     smearing contrib. (-TS)   =      -0.00088561 Ry

     total magnetization       =     0.00 Bohr mag/cell
     absolute magnetization    =     0.00 Bohr mag/cell

     convergence has been achieved in   6 iterations

     Forces acting on atoms (cartesian axes, Ry/au):

     atom    1 type  1   force =    -0.00000000   -0.00000000   -0.00000000
     atom    2 type  1   force =     0.00000000    0.00000000    0.00000000

     Total force =     0.000000     Total SCF correction =     0.000000


     Computing stress (Cartesian axis) and pressure

          total   stress  (Ry/bohr**3)                   (kbar)     P=    0.38
   0.00000367   0.00000000   0.00000000          0.54      0.00      0.00
   0.00000000   0.00000367   0.00000000          0.00      0.54      0.00
  -0.00000000   0.00000000   0.00000032         -0.00      0.00      0.05


     Writing output data file pw.save/

     init_run     :     17.27s CPU     15.95s WALL (       2 calls)
     electrons    :   1844.47s CPU   1653.60s WALL (       9 calls)
     update_pot   :     19.83s CPU     20.13s WALL (       7 calls)
     forces       :     15.50s CPU     16.53s WALL (       9 calls)
     stress       :     49.34s CPU     51.25s WALL (       9 calls)

     Called by init_run:
     wfcinit      :     12.14s CPU     10.69s WALL (       2 calls)
     potinit      :      2.06s CPU      2.12s WALL (       2 calls)
     hinit0       :      2.73s CPU      2.64s WALL (       2 calls)

     Called by electrons:
     c_bands      :   1597.94s CPU   1396.20s WALL (      95 calls)
     sum_band     :    147.98s CPU    148.80s WALL (      95 calls)
     v_of_rho     :     22.50s CPU     21.02s WALL (     101 calls)
     newd         :     10.98s CPU     20.20s WALL (     101 calls)
     PAW_pot      :     75.70s CPU     79.50s WALL (     108 calls)
     mix_rho      :      1.59s CPU      1.34s WALL (      95 calls)

     Called by c_bands:
     init_us_2    :     26.25s CPU     22.24s WALL (   39060 calls)
     cegterg      :   1513.80s CPU   1326.50s WALL (   17100 calls)

     Called by sum_band:
     sum_band:bec :      0.25s CPU      0.35s WALL (   18360 calls)
     addusdens    :     28.28s CPU     27.80s WALL (      95 calls)

     Called by *egterg:
     h_psi        :   1127.33s CPU    931.24s WALL (   82964 calls)
     s_psi        :     34.25s CPU     27.16s WALL (   82964 calls)
     g_psi        :      6.34s CPU      5.19s WALL (   65504 calls)
     cdiaghg      :    202.23s CPU    245.52s WALL (   80804 calls)

     Called by h_psi:
     h_psi:pot    :   1123.09s CPU    927.33s WALL (   82964 calls)
     h_psi:calbec :     41.38s CPU     34.32s WALL (   82964 calls)
     vloc_psi     :   1043.22s CPU    860.38s WALL (   82964 calls)
     add_vuspsi   :     37.23s CPU     30.36s WALL (   82964 calls)

     General routines
     calbec       :     50.70s CPU     43.49s WALL (  109424 calls)
     fft          :      5.78s CPU      5.70s WALL (    2880 calls)
     ffts         :      0.22s CPU      0.21s WALL (     392 calls)
     fftw         :   1014.73s CPU    851.75s WALL ( 1772368 calls)
     interpolate  :      0.48s CPU      0.53s WALL (     202 calls)

     Parallel routines
     fft_scatt_xy :    138.31s CPU    117.53s WALL ( 1775640 calls)
     fft_scatt_yz :    142.39s CPU    130.90s WALL ( 1775640 calls)

     PWSCF        :  32m34.44s CPU  29m26.89s WALL


   This run was terminated on:  11:26:50   6Nov2020            

=------------------------------------------------------------------------------=
   JOB DONE.
=------------------------------------------------------------------------------=
