--------------------------------------------------------------------------
WARNING: Linux kernel CMA support was requested via the
btl_vader_single_copy_mechanism MCA variable, but CMA support is
not available due to restrictive ptrace settings.

The vader shared memory BTL will fall back on another single-copy
mechanism if one is available. This may result in lower performance.

  Local host: DESKTOP-12SE80T
--------------------------------------------------------------------------

     Program PWSCF v.6.4.1 starts on  7Nov2020 at  7:48: 5 

     This program is part of the open-source Quantum ESPRESSO suite
     for quantum simulation of materials; please cite
         "P. Giannozzi et al., J. Phys.:Condens. Matter 21 395502 (2009);
         "P. Giannozzi et al., J. Phys.:Condens. Matter 29 465901 (2017);
          URL http://www.quantum-espresso.org", 
     in publications or presentations arising from this work. More details at
     http://www.quantum-espresso.org/quote

     Parallel version (MPI), running on     2 processors

     MPI processes distributed on     1 nodes
     R & G space division:  proc/nbgrp/npool/nimage =       2
     Waiting for input...
     Reading input from standard input

     Current dimensions of program PWSCF are:
     Max number of different atomic species (ntypx) = 10
     Max number of k-points (npk) =  40000
     Max angular momentum in pseudopotentials (lmaxx) =  3
               file Tb.pbe-spdn-kjpaw_psl.1.0.0.UPF: wavefunction(s)  5P renormalized

     Subspace diagonalization in iterative solution of the eigenvalue problem:
     a serial algorithm will be used

     Message from routine setup:
     DEPRECATED: symmetry with ibrav=0, use correct ibrav instead

     Parallelization info
     --------------------
     sticks:   dense  smooth     PW     G-vecs:    dense   smooth      PW
     Min         372     219     75                12690     6027    1159
     Max         373     220     76                12693     6032    1162
     Sum         745     439    151                25383    12059    2321



     bravais-lattice index     =            0
     lattice parameter (alat)  =       6.8049  a.u.
     unit-cell volume          =     431.4798 (a.u.)^3
     number of atoms/cell      =            2
     number of atomic types    =            1
     number of electrons       =        22.00
     number of Kohn-Sham states=           15
     kinetic-energy cutoff     =      35.0000  Ry
     charge density cutoff     =     229.0000  Ry
     convergence threshold     =      1.0E-06
     mixing beta               =       0.7000
     number of iterations used =            8  plain     mixing
     Exchange-correlation      = SLA PW PBX PBC ( 1  4  3  4 0 0)
     nstep                     =           50


     celldm(1)=   6.804904  celldm(2)=   0.000000  celldm(3)=   0.000000
     celldm(4)=   0.000000  celldm(5)=   0.000000  celldm(6)=   0.000000

     crystal axes: (cart. coord. in units of alat)
               a(1) = (   1.000000   0.000000   0.000000 )  
               a(2) = (  -0.500000   0.866025   0.000000 )  
               a(3) = (   0.000000   0.000000   1.581116 )  

     reciprocal axes: (cart. coord. in units 2 pi/alat)
               b(1) = (  1.000000  0.577350 -0.000000 )  
               b(2) = (  0.000000  1.154701  0.000000 )  
               b(3) = (  0.000000 -0.000000  0.632465 )  


     PseudoPot. # 1 for Tb read from file:
     ./potentials/Tb.pbe-spdn-kjpaw_psl.1.0.0.UPF
     MD5 check sum: 1d4feb5b01b570ab3d1af2cc1fee54c1
     Pseudo is Projector augmented-wave + core cor, Zval = 11.0
     Generated using "atomic" code by A. Dal Corso v.6.2.2
     Shape of augmentation charge: PSQ
     Using radial grid of 1263 points,  6 beta functions with: 
                l(1) =   0
                l(2) =   0
                l(3) =   1
                l(4) =   1
                l(5) =   2
                l(6) =   2
     Q(r) pseudized with 0 coefficients 


     atomic species   valence    mass     pseudopotential
        Tb            11.00   158.92500     Tb( 1.00)

     Starting magnetic structure 
     atomic species   magnetization
        Tb           1.000

     24 Sym. Ops., with inversion, found (12 have fractional translation)



   Cartesian axes

     site n.     atom                  positions (alat units)
         1           Tb  tau(   1) = (  -0.0000000   0.5773503   0.3952791  )
         2           Tb  tau(   2) = (   0.5000000   0.2886751   1.1858373  )

     number of k points=    90  Methfessel-Paxton smearing, width (Ry)=  0.0200
                       cart. coord. in units 2pi/alat
        k(    1) = (   0.0500000   0.0866025   0.0527054), wk =   0.0066667
        k(    2) = (   0.0500000   0.0866025   0.1581161), wk =   0.0066667
        k(    3) = (   0.0500000   0.0866025   0.2635269), wk =   0.0066667
        k(    4) = (   0.0500000   0.2020726   0.0527054), wk =   0.0133333
        k(    5) = (   0.0500000   0.2020726   0.1581161), wk =   0.0133333
        k(    6) = (   0.0500000   0.2020726   0.2635269), wk =   0.0133333
        k(    7) = (   0.0500000   0.3175426   0.0527054), wk =   0.0133333
        k(    8) = (   0.0500000   0.3175426   0.1581161), wk =   0.0133333
        k(    9) = (   0.0500000   0.3175426   0.2635269), wk =   0.0133333
        k(   10) = (   0.0500000   0.4330127   0.0527054), wk =   0.0133333
        k(   11) = (   0.0500000   0.4330127   0.1581161), wk =   0.0133333
        k(   12) = (   0.0500000   0.4330127   0.2635269), wk =   0.0133333
        k(   13) = (   0.0500000   0.5484828   0.0527054), wk =   0.0133333
        k(   14) = (   0.0500000   0.5484828   0.1581161), wk =   0.0133333
        k(   15) = (   0.0500000   0.5484828   0.2635269), wk =   0.0133333
        k(   16) = (   0.0500000  -0.4907477   0.0527054), wk =   0.0133333
        k(   17) = (   0.0500000  -0.4907477   0.1581161), wk =   0.0133333
        k(   18) = (   0.0500000  -0.4907477   0.2635269), wk =   0.0133333
        k(   19) = (   0.0500000  -0.3752777   0.0527054), wk =   0.0133333
        k(   20) = (   0.0500000  -0.3752777   0.1581161), wk =   0.0133333
        k(   21) = (   0.0500000  -0.3752777   0.2635269), wk =   0.0133333
        k(   22) = (   0.0500000  -0.2598076   0.0527054), wk =   0.0133333
        k(   23) = (   0.0500000  -0.2598076   0.1581161), wk =   0.0133333
        k(   24) = (   0.0500000  -0.2598076   0.2635269), wk =   0.0133333
        k(   25) = (   0.0500000  -0.1443376   0.0527054), wk =   0.0133333
        k(   26) = (   0.0500000  -0.1443376   0.1581161), wk =   0.0133333
        k(   27) = (   0.0500000  -0.1443376   0.2635269), wk =   0.0133333
        k(   28) = (   0.0500000  -0.0288675   0.0527054), wk =   0.0066667
        k(   29) = (   0.0500000  -0.0288675   0.1581161), wk =   0.0066667
        k(   30) = (   0.0500000  -0.0288675   0.2635269), wk =   0.0066667
        k(   31) = (   0.1500000   0.2598076   0.0527054), wk =   0.0066667
        k(   32) = (   0.1500000   0.2598076   0.1581161), wk =   0.0066667
        k(   33) = (   0.1500000   0.2598076   0.2635269), wk =   0.0066667
        k(   34) = (   0.1500000   0.3752777   0.0527054), wk =   0.0133333
        k(   35) = (   0.1500000   0.3752777   0.1581161), wk =   0.0133333
        k(   36) = (   0.1500000   0.3752777   0.2635269), wk =   0.0133333
        k(   37) = (   0.1500000   0.4907477   0.0527054), wk =   0.0133333
        k(   38) = (   0.1500000   0.4907477   0.1581161), wk =   0.0133333
        k(   39) = (   0.1500000   0.4907477   0.2635269), wk =   0.0133333
        k(   40) = (   0.1500000   0.6062178   0.0527054), wk =   0.0133333
        k(   41) = (   0.1500000   0.6062178   0.1581161), wk =   0.0133333
        k(   42) = (   0.1500000   0.6062178   0.2635269), wk =   0.0133333
        k(   43) = (   0.1500000  -0.4330127   0.0527054), wk =   0.0133333
        k(   44) = (   0.1500000  -0.4330127   0.1581161), wk =   0.0133333
        k(   45) = (   0.1500000  -0.4330127   0.2635269), wk =   0.0133333
        k(   46) = (   0.1500000  -0.3175426   0.0527054), wk =   0.0133333
        k(   47) = (   0.1500000  -0.3175426   0.1581161), wk =   0.0133333
        k(   48) = (   0.1500000  -0.3175426   0.2635269), wk =   0.0133333
        k(   49) = (   0.1500000  -0.2020726   0.0527054), wk =   0.0133333
        k(   50) = (   0.1500000  -0.2020726   0.1581161), wk =   0.0133333
        k(   51) = (   0.1500000  -0.2020726   0.2635269), wk =   0.0133333
        k(   52) = (   0.1500000  -0.0866025   0.0527054), wk =   0.0066667
        k(   53) = (   0.1500000  -0.0866025   0.1581161), wk =   0.0066667
        k(   54) = (   0.1500000  -0.0866025   0.2635269), wk =   0.0066667
        k(   55) = (   0.2500000   0.4330127   0.0527054), wk =   0.0066667
        k(   56) = (   0.2500000   0.4330127   0.1581161), wk =   0.0066667
        k(   57) = (   0.2500000   0.4330127   0.2635269), wk =   0.0066667
        k(   58) = (   0.2500000   0.5484828   0.0527054), wk =   0.0133333
        k(   59) = (   0.2500000   0.5484828   0.1581161), wk =   0.0133333
        k(   60) = (   0.2500000   0.5484828   0.2635269), wk =   0.0133333
        k(   61) = (   0.2500000   0.6639528   0.0527054), wk =   0.0133333
        k(   62) = (   0.2500000   0.6639528   0.1581161), wk =   0.0133333
        k(   63) = (   0.2500000   0.6639528   0.2635269), wk =   0.0133333
        k(   64) = (   0.2500000  -0.3752777   0.0527054), wk =   0.0133333
        k(   65) = (   0.2500000  -0.3752777   0.1581161), wk =   0.0133333
        k(   66) = (   0.2500000  -0.3752777   0.2635269), wk =   0.0133333
        k(   67) = (   0.2500000  -0.2598076   0.0527054), wk =   0.0133333
        k(   68) = (   0.2500000  -0.2598076   0.1581161), wk =   0.0133333
        k(   69) = (   0.2500000  -0.2598076   0.2635269), wk =   0.0133333
        k(   70) = (   0.2500000  -0.1443376   0.0527054), wk =   0.0066667
        k(   71) = (   0.2500000  -0.1443376   0.1581161), wk =   0.0066667
        k(   72) = (   0.2500000  -0.1443376   0.2635269), wk =   0.0066667
        k(   73) = (   0.3500000   0.6062178   0.0527054), wk =   0.0066667
        k(   74) = (   0.3500000   0.6062178   0.1581161), wk =   0.0066667
        k(   75) = (   0.3500000   0.6062178   0.2635269), wk =   0.0066667
        k(   76) = (   0.3500000   0.7216878   0.0527054), wk =   0.0133333
        k(   77) = (   0.3500000   0.7216878   0.1581161), wk =   0.0133333
        k(   78) = (   0.3500000   0.7216878   0.2635269), wk =   0.0133333
        k(   79) = (   0.3500000  -0.3175426   0.0527054), wk =   0.0133333
        k(   80) = (   0.3500000  -0.3175426   0.1581161), wk =   0.0133333
        k(   81) = (   0.3500000  -0.3175426   0.2635269), wk =   0.0133333
        k(   82) = (   0.3500000  -0.2020726   0.0527054), wk =   0.0066667
        k(   83) = (   0.3500000  -0.2020726   0.1581161), wk =   0.0066667
        k(   84) = (   0.3500000  -0.2020726   0.2635269), wk =   0.0066667
        k(   85) = (   0.4500000   0.7794229   0.0527054), wk =   0.0066667
        k(   86) = (   0.4500000   0.7794229   0.1581161), wk =   0.0066667
        k(   87) = (   0.4500000   0.7794229   0.2635269), wk =   0.0066667
        k(   88) = (   0.4500000  -0.2598076   0.0527054), wk =   0.0066667
        k(   89) = (   0.4500000  -0.2598076   0.1581161), wk =   0.0066667
        k(   90) = (   0.4500000  -0.2598076   0.2635269), wk =   0.0066667

     Dense  grid:    25383 G-vectors     FFT dimensions: (  36,  36,  54)

     Smooth grid:    12059 G-vectors     FFT dimensions: (  25,  25,  48)

     Estimated max dynamical RAM per process >      86.34 MB

     Estimated total dynamical RAM >     172.68 MB
     Generating pointlists ...
     new r_m :   0.4038 (alat units)  2.7479 (a.u.) for type    1

     Initial potential from superposition of free atoms

     starting charge   21.95757, renormalised to   22.00000

     negative rho (up, down):  0.000E+00 5.858E-03
     Starting wfcs are   26 randomized atomic wfcs
     Checking if some PAW data can be deallocated... 

     total cpu time spent up to now is        8.0 secs

     Self-consistent Calculation

     iteration #  1     ecut=    35.00 Ry     beta= 0.70
     Davidson diagonalization with overlap
     ethr =  1.00E-02,  avg # of iterations =  1.9

     total cpu time spent up to now is       15.9 secs

     total energy              =   -1143.69961548 Ry
     Harris-Foulkes estimate   =   -1141.90916898 Ry
     estimated scf accuracy    <       1.16953711 Ry

     total magnetization       =     4.59 Bohr mag/cell
     absolute magnetization    =     4.59 Bohr mag/cell

     iteration #  2     ecut=    35.00 Ry     beta= 0.70
     Davidson diagonalization with overlap
     ethr =  5.32E-03,  avg # of iterations =  1.0

     total cpu time spent up to now is       22.9 secs

     total energy              =   -1144.00331815 Ry
     Harris-Foulkes estimate   =   -1143.76265783 Ry
     estimated scf accuracy    <       0.14215000 Ry

     total magnetization       =     3.09 Bohr mag/cell
     absolute magnetization    =     3.09 Bohr mag/cell

     iteration #  3     ecut=    35.00 Ry     beta= 0.70
     Davidson diagonalization with overlap
     ethr =  6.46E-04,  avg # of iterations =  2.2

     total cpu time spent up to now is       31.0 secs

     total energy              =   -1144.06579763 Ry
     Harris-Foulkes estimate   =   -1144.05543193 Ry
     estimated scf accuracy    <       0.00187969 Ry

     total magnetization       =     1.58 Bohr mag/cell
     absolute magnetization    =     1.58 Bohr mag/cell

     iteration #  4     ecut=    35.00 Ry     beta= 0.70
     Davidson diagonalization with overlap
     ethr =  8.54E-06,  avg # of iterations =  3.5

     total cpu time spent up to now is       43.6 secs

     total energy              =   -1144.07175984 Ry
     Harris-Foulkes estimate   =   -1144.06910993 Ry
     estimated scf accuracy    <       0.00038619 Ry

     total magnetization       =     1.22 Bohr mag/cell
     absolute magnetization    =     1.22 Bohr mag/cell

     iteration #  5     ecut=    35.00 Ry     beta= 0.70
     Davidson diagonalization with overlap
     ethr =  1.76E-06,  avg # of iterations =  3.0

     total cpu time spent up to now is       55.6 secs

     total energy              =   -1144.07402833 Ry
     Harris-Foulkes estimate   =   -1144.07358906 Ry
     estimated scf accuracy    <       0.00006522 Ry

     total magnetization       =     0.87 Bohr mag/cell
     absolute magnetization    =     0.87 Bohr mag/cell

     iteration #  6     ecut=    35.00 Ry     beta= 0.70
     Davidson diagonalization with overlap
     ethr =  2.96E-07,  avg # of iterations =  2.7

     total cpu time spent up to now is       66.2 secs

     total energy              =   -1144.07430320 Ry
     Harris-Foulkes estimate   =   -1144.07421890 Ry
     estimated scf accuracy    <       0.00002382 Ry

     total magnetization       =     0.75 Bohr mag/cell
     absolute magnetization    =     0.75 Bohr mag/cell

     iteration #  7     ecut=    35.00 Ry     beta= 0.70
     Davidson diagonalization with overlap
     ethr =  1.08E-07,  avg # of iterations =  3.9

     total cpu time spent up to now is       79.8 secs

     total energy              =   -1144.07475563 Ry
     Harris-Foulkes estimate   =   -1144.07490541 Ry
     estimated scf accuracy    <       0.00001014 Ry

     total magnetization       =     0.53 Bohr mag/cell
     absolute magnetization    =     0.53 Bohr mag/cell

     iteration #  8     ecut=    35.00 Ry     beta= 0.70
     Davidson diagonalization with overlap
     ethr =  4.61E-08,  avg # of iterations =  4.5

     total cpu time spent up to now is       94.4 secs

     total energy              =   -1144.07466860 Ry
     Harris-Foulkes estimate   =   -1144.07525447 Ry
     estimated scf accuracy    <       0.00000267 Ry

     total magnetization       =     0.33 Bohr mag/cell
     absolute magnetization    =     0.33 Bohr mag/cell

     iteration #  9     ecut=    35.00 Ry     beta= 0.70
     Davidson diagonalization with overlap
     ethr =  1.21E-08,  avg # of iterations =  5.5

     Magnetic moment per site:
     atom:    1    charge:    9.5019    magn:    0.0239    constr:    0.0000
     atom:    2    charge:    9.5019    magn:    0.0239    constr:    0.0000

     total cpu time spent up to now is      112.0 secs

     End of self-consistent calculation

     Number of k-points >= 100: set verbosity='high' to print the bands.

     the Fermi energy is    10.4387 ev

!    total energy              =   -1144.07546549 Ry
     Harris-Foulkes estimate   =   -1144.07546233 Ry
     estimated scf accuracy    <       0.00000038 Ry

     total all-electron energy =    -46835.843346 Ry

     The total energy is the sum of the following terms:

     one-electron contribution =     -27.48534494 Ry
     hartree contribution      =      22.32671675 Ry
     xc contribution           =    -123.91751299 Ry
     ewald contribution        =    -116.51812664 Ry
     one-center paw contrib.   =    -898.48009279 Ry
     smearing contrib. (-TS)   =      -0.00110488 Ry

     total magnetization       =     0.08 Bohr mag/cell
     absolute magnetization    =     0.08 Bohr mag/cell

     convergence has been achieved in   9 iterations

     Forces acting on atoms (cartesian axes, Ry/au):

     atom    1 type  1   force =     0.00000000   -0.00000000    0.00000000
     atom    2 type  1   force =     0.00000000    0.00000000    0.00000000

     Total force =     0.000000     Total SCF correction =     0.000000


     Computing stress (Cartesian axis) and pressure

          total   stress  (Ry/bohr**3)                   (kbar)     P=    2.96
   0.00002735  -0.00000000   0.00000000          4.02     -0.00      0.00
  -0.00000000   0.00002735   0.00000000         -0.00      4.02      0.00
  -0.00000000   0.00000000   0.00000570         -0.00      0.00      0.84


     BFGS Geometry Optimization

     number of scf cycles    =   1
     number of bfgs steps    =   0

     enthalpy new            =   -1144.0754654928 Ry

     new trust radius        =       0.0028408350 bohr
     new conv_thr            =       0.0000010000 Ry

     new unit-cell volume =    432.13166 a.u.^3 (    64.03530 Ang^3 )
     density =      8.24236 g/cm^3

CELL_PARAMETERS (alat=  6.80490380)
   1.000683811   0.000000000  -0.000000000
  -0.500341905   0.866617601   0.000000000
   0.000000000   0.000000000   1.581341737

ATOMIC_POSITIONS (crystal)
Tb       0.333333333   0.666666667   0.250000000
Tb       0.666666667   0.333333333   0.750000000



     Writing output data file pw.save/
     NEW-OLD atomic charge density approx. for the potential
     extrapolated charge   22.03312, renormalised to   22.00000

     total cpu time spent up to now is      120.2 secs

     Self-consistent Calculation

     iteration #  1     ecut=    35.00 Ry     beta= 0.70
     Davidson diagonalization with overlap
     ethr =  1.00E-06,  avg # of iterations =  2.0

     total cpu time spent up to now is      131.4 secs

     total energy              =   -1144.07543665 Ry
     Harris-Foulkes estimate   =   -1144.05846842 Ry
     estimated scf accuracy    <       0.00002232 Ry

     total magnetization       =     0.07 Bohr mag/cell
     absolute magnetization    =     0.07 Bohr mag/cell

     iteration #  2     ecut=    35.00 Ry     beta= 0.70
     Davidson diagonalization with overlap
     ethr =  1.01E-07,  avg # of iterations =  3.0

     total cpu time spent up to now is      144.3 secs

     total energy              =   -1144.07548720 Ry
     Harris-Foulkes estimate   =   -1144.07550012 Ry
     estimated scf accuracy    <       0.00002713 Ry

     total magnetization       =     0.07 Bohr mag/cell
     absolute magnetization    =     0.07 Bohr mag/cell

     iteration #  3     ecut=    35.00 Ry     beta= 0.70
     Davidson diagonalization with overlap
     ethr =  1.01E-07,  avg # of iterations =  1.7

     total cpu time spent up to now is      153.2 secs

     total energy              =   -1144.07548586 Ry
     Harris-Foulkes estimate   =   -1144.07548893 Ry
     estimated scf accuracy    <       0.00000599 Ry

     total magnetization       =     0.07 Bohr mag/cell
     absolute magnetization    =     0.07 Bohr mag/cell

     iteration #  4     ecut=    35.00 Ry     beta= 0.70
     Davidson diagonalization with overlap
     ethr =  2.72E-08,  avg # of iterations =  2.0

     Magnetic moment per site:
     atom:    1    charge:    9.5026    magn:    0.0174    constr:    0.0000
     atom:    2    charge:    9.5026    magn:    0.0174    constr:    0.0000

     total cpu time spent up to now is      163.5 secs

     End of self-consistent calculation

     Number of k-points >= 100: set verbosity='high' to print the bands.

     the Fermi energy is    10.4193 ev

!    total energy              =   -1144.07548795 Ry
     Harris-Foulkes estimate   =   -1144.07548736 Ry
     estimated scf accuracy    <       0.00000027 Ry

     total all-electron energy =    -46835.843368 Ry

     The total energy is the sum of the following terms:

     one-electron contribution =     -27.57240661 Ry
     hartree contribution      =      22.35324710 Ry
     xc contribution           =    -123.91605601 Ry
     ewald contribution        =    -116.45893487 Ry
     one-center paw contrib.   =    -898.48022091 Ry
     smearing contrib. (-TS)   =      -0.00111665 Ry

     total magnetization       =     0.06 Bohr mag/cell
     absolute magnetization    =     0.06 Bohr mag/cell

     convergence has been achieved in   4 iterations

     Forces acting on atoms (cartesian axes, Ry/au):

     atom    1 type  1   force =     0.00000000   -0.00000000    0.00000000
     atom    2 type  1   force =    -0.00000000    0.00000000   -0.00000000

     Total force =     0.000000     Total SCF correction =     0.000000


     Computing stress (Cartesian axis) and pressure

          total   stress  (Ry/bohr**3)                   (kbar)     P=    2.66
   0.00002646  -0.00000000   0.00000000          3.89     -0.00      0.00
  -0.00000000   0.00002646  -0.00000000         -0.00      3.89     -0.00
  -0.00000000  -0.00000000   0.00000130         -0.00     -0.00      0.19


     number of scf cycles    =   2
     number of bfgs steps    =   1

     enthalpy old            =   -1144.0754654928 Ry
     enthalpy new            =   -1144.0754879486 Ry

     CASE: enthalpy_new < enthalpy_old


     WARNING: bfgs curvature condition failed, Theta= 0.840
     new trust radius        =       0.0031251412 bohr
     new conv_thr            =       0.0000000100 Ry

     new unit-cell volume =    432.82277 a.u.^3 (    64.13772 Ang^3 )
     density =      8.22920 g/cm^3

CELL_PARAMETERS (alat=  6.80490380)
   1.001436002   0.000000000  -0.000000000
  -0.500718001   0.867269018   0.000000000
   0.000000000   0.000000000   1.581492362

ATOMIC_POSITIONS (crystal)
Tb       0.333333333   0.666666667   0.250000000
Tb       0.666666667   0.333333333   0.750000000



     Writing output data file pw.save/
     NEW-OLD atomic charge density approx. for the potential
     extrapolated charge   22.03506, renormalised to   22.00000

     total cpu time spent up to now is      171.6 secs

     Self-consistent Calculation

     iteration #  1     ecut=    35.00 Ry     beta= 0.70
     Davidson diagonalization with overlap
     ethr =  1.00E-06,  avg # of iterations =  2.0

     total cpu time spent up to now is      182.8 secs

     total energy              =   -1144.07544685 Ry
     Harris-Foulkes estimate   =   -1144.05740404 Ry
     estimated scf accuracy    <       0.00002854 Ry

     total magnetization       =     0.05 Bohr mag/cell
     absolute magnetization    =     0.05 Bohr mag/cell

     iteration #  2     ecut=    35.00 Ry     beta= 0.70
     Davidson diagonalization with overlap
     ethr =  1.30E-07,  avg # of iterations =  3.0

     total cpu time spent up to now is      195.4 secs

     total energy              =   -1144.07550530 Ry
     Harris-Foulkes estimate   =   -1144.07552087 Ry
     estimated scf accuracy    <       0.00003102 Ry

     total magnetization       =     0.05 Bohr mag/cell
     absolute magnetization    =     0.05 Bohr mag/cell

     iteration #  3     ecut=    35.00 Ry     beta= 0.70
     Davidson diagonalization with overlap
     ethr =  1.30E-07,  avg # of iterations =  1.6

     total cpu time spent up to now is      204.1 secs

     total energy              =   -1144.07550378 Ry
     Harris-Foulkes estimate   =   -1144.07550733 Ry
     estimated scf accuracy    <       0.00000636 Ry

     total magnetization       =     0.05 Bohr mag/cell
     absolute magnetization    =     0.05 Bohr mag/cell

     iteration #  4     ecut=    35.00 Ry     beta= 0.70
     Davidson diagonalization with overlap
     ethr =  2.89E-08,  avg # of iterations =  2.0

     total cpu time spent up to now is      214.3 secs

     total energy              =   -1144.07550493 Ry
     Harris-Foulkes estimate   =   -1144.07550488 Ry
     estimated scf accuracy    <       0.00000049 Ry

     total magnetization       =     0.04 Bohr mag/cell
     absolute magnetization    =     0.04 Bohr mag/cell

     iteration #  5     ecut=    35.00 Ry     beta= 0.70
     Davidson diagonalization with overlap
     ethr =  2.22E-09,  avg # of iterations =  1.7

     total cpu time spent up to now is      223.3 secs

     total energy              =   -1144.07550438 Ry
     Harris-Foulkes estimate   =   -1144.07550503 Ry
     estimated scf accuracy    <       0.00000016 Ry

     total magnetization       =     0.04 Bohr mag/cell
     absolute magnetization    =     0.04 Bohr mag/cell

     iteration #  6     ecut=    35.00 Ry     beta= 0.70
     Davidson diagonalization with overlap
     ethr =  7.06E-10,  avg # of iterations =  3.7

     total cpu time spent up to now is      237.8 secs

     total energy              =   -1144.07550399 Ry
     Harris-Foulkes estimate   =   -1144.07550672 Ry
     estimated scf accuracy    <       0.00000046 Ry

     total magnetization       =     0.03 Bohr mag/cell
     absolute magnetization    =     0.03 Bohr mag/cell

     iteration #  7     ecut=    35.00 Ry     beta= 0.70
     Davidson diagonalization with overlap
     ethr =  7.06E-10,  avg # of iterations =  4.0

     total cpu time spent up to now is      251.5 secs

     total energy              =   -1144.07550662 Ry
     Harris-Foulkes estimate   =   -1144.07550848 Ry
     estimated scf accuracy    <       0.00000160 Ry

     total magnetization       =     0.01 Bohr mag/cell
     absolute magnetization    =     0.01 Bohr mag/cell

     iteration #  8     ecut=    35.00 Ry     beta= 0.70
     Davidson diagonalization with overlap
     ethr =  7.06E-10,  avg # of iterations =  3.0

     Magnetic moment per site:
     atom:    1    charge:    9.5032    magn:    0.0002    constr:    0.0000
     atom:    2    charge:    9.5032    magn:    0.0002    constr:    0.0000

     total cpu time spent up to now is      264.2 secs

     End of self-consistent calculation

     Number of k-points >= 100: set verbosity='high' to print the bands.

     the Fermi energy is    10.3998 ev

!    total energy              =   -1144.07550764 Ry
     Harris-Foulkes estimate   =   -1144.07550764 Ry
     estimated scf accuracy    <          5.5E-09 Ry

     total all-electron energy =    -46835.843388 Ry

     The total energy is the sum of the following terms:

     one-electron contribution =     -27.66292997 Ry
     hartree contribution      =      22.37819519 Ry
     xc contribution           =    -123.91337406 Ry
     ewald contribution        =    -116.39621253 Ry
     one-center paw contrib.   =    -898.48005520 Ry
     smearing contrib. (-TS)   =      -0.00113107 Ry

     total magnetization       =     0.00 Bohr mag/cell
     absolute magnetization    =     0.00 Bohr mag/cell

     convergence has been achieved in   8 iterations

     Forces acting on atoms (cartesian axes, Ry/au):

     atom    1 type  1   force =     0.00000000   -0.00000000    0.00000000
     atom    2 type  1   force =    -0.00000000    0.00000000   -0.00000000

     Total force =     0.000000     Total SCF correction =     0.000000


     Computing stress (Cartesian axis) and pressure

          total   stress  (Ry/bohr**3)                   (kbar)     P=    1.84
   0.00002024   0.00000000  -0.00000000          2.98      0.00     -0.00
  -0.00000000   0.00002024  -0.00000000         -0.00      2.98     -0.00
  -0.00000000  -0.00000000  -0.00000296         -0.00     -0.00     -0.44


     number of scf cycles    =   3
     number of bfgs steps    =   2

     enthalpy old            =   -1144.0754879486 Ry
     enthalpy new            =   -1144.0755076393 Ry

     CASE: enthalpy_new < enthalpy_old

     new trust radius        =       0.0046879351 bohr
     new conv_thr            =       0.0000000100 Ry

     new unit-cell volume =    433.78761 a.u.^3 (    64.28069 Ang^3 )
     density =      8.21090 g/cm^3

CELL_PARAMETERS (alat=  6.80490380)
   1.002564290   0.000000000  -0.000000000
  -0.501282145   0.868246144  -0.000000000
   0.000000000  -0.000000000   1.581452230

ATOMIC_POSITIONS (crystal)
Tb       0.333333333   0.666666667   0.250000000
Tb       0.666666667   0.333333333   0.750000000



     Writing output data file pw.save/
     NEW-OLD atomic charge density approx. for the potential
     extrapolated charge   22.04884, renormalised to   22.00000

     total cpu time spent up to now is      272.5 secs

     Self-consistent Calculation

     iteration #  1     ecut=    35.00 Ry     beta= 0.70
     Davidson diagonalization with overlap
     ethr =  1.00E-06,  avg # of iterations =  2.6

     total cpu time spent up to now is      284.6 secs

     total energy              =   -1144.07541739 Ry
     Harris-Foulkes estimate   =   -1144.05013408 Ry
     estimated scf accuracy    <       0.00005074 Ry

     total magnetization       =     0.00 Bohr mag/cell
     absolute magnetization    =     0.00 Bohr mag/cell

     iteration #  2     ecut=    35.00 Ry     beta= 0.70
     Davidson diagonalization with overlap
     ethr =  2.31E-07,  avg # of iterations =  3.0

     total cpu time spent up to now is      298.1 secs

     total energy              =   -1144.07552699 Ry
     Harris-Foulkes estimate   =   -1144.07555711 Ry
     estimated scf accuracy    <       0.00005974 Ry

     total magnetization       =     0.00 Bohr mag/cell
     absolute magnetization    =     0.00 Bohr mag/cell

     iteration #  3     ecut=    35.00 Ry     beta= 0.70
     Davidson diagonalization with overlap
     ethr =  2.31E-07,  avg # of iterations =  1.7

     total cpu time spent up to now is      307.1 secs

     total energy              =   -1144.07552266 Ry
     Harris-Foulkes estimate   =   -1144.07553066 Ry
     estimated scf accuracy    <       0.00001272 Ry

     total magnetization       =     0.00 Bohr mag/cell
     absolute magnetization    =     0.00 Bohr mag/cell

     iteration #  4     ecut=    35.00 Ry     beta= 0.70
     Davidson diagonalization with overlap
     ethr =  5.78E-08,  avg # of iterations =  2.0

     total cpu time spent up to now is      317.3 secs

     total energy              =   -1144.07552420 Ry
     Harris-Foulkes estimate   =   -1144.07552450 Ry
     estimated scf accuracy    <       0.00000091 Ry

     total magnetization       =     0.00 Bohr mag/cell
     absolute magnetization    =     0.00 Bohr mag/cell

     iteration #  5     ecut=    35.00 Ry     beta= 0.70
     Davidson diagonalization with overlap
     ethr =  4.15E-09,  avg # of iterations =  1.1

     total cpu time spent up to now is      325.7 secs

     total energy              =   -1144.07552413 Ry
     Harris-Foulkes estimate   =   -1144.07552424 Ry
     estimated scf accuracy    <       0.00000041 Ry

     total magnetization       =     0.00 Bohr mag/cell
     absolute magnetization    =     0.00 Bohr mag/cell

     iteration #  6     ecut=    35.00 Ry     beta= 0.70
     Davidson diagonalization with overlap
     ethr =  1.86E-09,  avg # of iterations =  1.0

     total cpu time spent up to now is      333.8 secs

     total energy              =   -1144.07552402 Ry
     Harris-Foulkes estimate   =   -1144.07552414 Ry
     estimated scf accuracy    <       0.00000020 Ry

     total magnetization       =     0.00 Bohr mag/cell
     absolute magnetization    =     0.00 Bohr mag/cell

     iteration #  7     ecut=    35.00 Ry     beta= 0.70
     Davidson diagonalization with overlap
     ethr =  9.15E-10,  avg # of iterations =  2.0

     Magnetic moment per site:
     atom:    1    charge:    9.5041    magn:    0.0001    constr:    0.0000
     atom:    2    charge:    9.5041    magn:    0.0001    constr:    0.0000

     total cpu time spent up to now is      343.6 secs

     End of self-consistent calculation

     Number of k-points >= 100: set verbosity='high' to print the bands.

     the Fermi energy is    10.3721 ev

!    total energy              =   -1144.07552405 Ry
     Harris-Foulkes estimate   =   -1144.07552405 Ry
     estimated scf accuracy    <          5.1E-09 Ry

     total all-electron energy =    -46835.843404 Ry

     The total energy is the sum of the following terms:

     one-electron contribution =     -27.79025626 Ry
     hartree contribution      =      22.41489952 Ry
     xc contribution           =    -123.91040952 Ry
     ewald contribution        =    -116.30858788 Ry
     one-center paw contrib.   =    -898.48002810 Ry
     smearing contrib. (-TS)   =      -0.00114182 Ry

     total magnetization       =     0.00 Bohr mag/cell
     absolute magnetization    =     0.00 Bohr mag/cell

     convergence has been achieved in   7 iterations

     Forces acting on atoms (cartesian axes, Ry/au):

     atom    1 type  1   force =    -0.00000000    0.00000000    0.00000000
     atom    2 type  1   force =     0.00000000   -0.00000000   -0.00000000

     Total force =     0.000000     Total SCF correction =     0.000000


     Computing stress (Cartesian axis) and pressure

          total   stress  (Ry/bohr**3)                   (kbar)     P=    1.08
   0.00001403   0.00000000  -0.00000000          2.06      0.00     -0.00
   0.00000000   0.00001403  -0.00000000          0.00      2.06     -0.00
  -0.00000000  -0.00000000  -0.00000598         -0.00     -0.00     -0.88


     number of scf cycles    =   4
     number of bfgs steps    =   3

     enthalpy old            =   -1144.0755076393 Ry
     enthalpy new            =   -1144.0755240550 Ry

     CASE: enthalpy_new < enthalpy_old

     new trust radius        =       0.0070318134 bohr
     new conv_thr            =       0.0000000100 Ry

     new unit-cell volume =    435.15879 a.u.^3 (    64.48388 Ang^3 )
     density =      8.18503 g/cm^3

CELL_PARAMETERS (alat=  6.80490380)
   1.004256721   0.000000000  -0.000000000
  -0.502128360   0.869711832  -0.000000000
   0.000000000  -0.000000000   1.581108460

ATOMIC_POSITIONS (crystal)
Tb       0.333333333   0.666666667   0.250000000
Tb       0.666666667   0.333333333   0.750000000



     Writing output data file pw.save/
     NEW-OLD atomic charge density approx. for the potential
     extrapolated charge   22.06919, renormalised to   22.00000

     total cpu time spent up to now is      351.9 secs

     Self-consistent Calculation

     iteration #  1     ecut=    35.00 Ry     beta= 0.70
     Davidson diagonalization with overlap
     ethr =  1.00E-06,  avg # of iterations =  3.0

     total cpu time spent up to now is      364.6 secs

     total energy              =   -1144.07532125 Ry
     Harris-Foulkes estimate   =   -1144.03920870 Ry
     estimated scf accuracy    <       0.00010308 Ry

     total magnetization       =     0.00 Bohr mag/cell
     absolute magnetization    =     0.00 Bohr mag/cell

     iteration #  2     ecut=    35.00 Ry     beta= 0.70
     Davidson diagonalization with overlap
     ethr =  4.69E-07,  avg # of iterations =  3.0

     total cpu time spent up to now is      378.2 secs

     total energy              =   -1144.07554392 Ry
     Harris-Foulkes estimate   =   -1144.07560535 Ry
     estimated scf accuracy    <       0.00012176 Ry

     total magnetization       =     0.00 Bohr mag/cell
     absolute magnetization    =     0.00 Bohr mag/cell

     iteration #  3     ecut=    35.00 Ry     beta= 0.70
     Davidson diagonalization with overlap
     ethr =  4.69E-07,  avg # of iterations =  1.7

     total cpu time spent up to now is      387.1 secs

     total energy              =   -1144.07553499 Ry
     Harris-Foulkes estimate   =   -1144.07555140 Ry
     estimated scf accuracy    <       0.00002594 Ry

     total magnetization       =     0.00 Bohr mag/cell
     absolute magnetization    =     0.00 Bohr mag/cell

     iteration #  4     ecut=    35.00 Ry     beta= 0.70
     Davidson diagonalization with overlap
     ethr =  1.18E-07,  avg # of iterations =  2.0

     total cpu time spent up to now is      397.4 secs

     total energy              =   -1144.07553813 Ry
     Harris-Foulkes estimate   =   -1144.07553874 Ry
     estimated scf accuracy    <       0.00000183 Ry

     total magnetization       =     0.00 Bohr mag/cell
     absolute magnetization    =     0.00 Bohr mag/cell

     iteration #  5     ecut=    35.00 Ry     beta= 0.70
     Davidson diagonalization with overlap
     ethr =  8.33E-09,  avg # of iterations =  1.1

     total cpu time spent up to now is      405.7 secs

     total energy              =   -1144.07553797 Ry
     Harris-Foulkes estimate   =   -1144.07553820 Ry
     estimated scf accuracy    <       0.00000081 Ry

     total magnetization       =     0.00 Bohr mag/cell
     absolute magnetization    =     0.00 Bohr mag/cell

     iteration #  6     ecut=    35.00 Ry     beta= 0.70
     Davidson diagonalization with overlap
     ethr =  3.70E-09,  avg # of iterations =  1.0

     total cpu time spent up to now is      413.9 secs

     total energy              =   -1144.07553776 Ry
     Harris-Foulkes estimate   =   -1144.07553800 Ry
     estimated scf accuracy    <       0.00000039 Ry

     total magnetization       =     0.00 Bohr mag/cell
     absolute magnetization    =     0.00 Bohr mag/cell

     iteration #  7     ecut=    35.00 Ry     beta= 0.70
     Davidson diagonalization with overlap
     ethr =  1.76E-09,  avg # of iterations =  2.1

     Magnetic moment per site:
     atom:    1    charge:    9.5053    magn:    0.0001    constr:    0.0000
     atom:    2    charge:    9.5053    magn:    0.0001    constr:    0.0000

     total cpu time spent up to now is      424.1 secs

     End of self-consistent calculation

     Number of k-points >= 100: set verbosity='high' to print the bands.

     the Fermi energy is    10.3326 ev

!    total energy              =   -1144.07553783 Ry
     Harris-Foulkes estimate   =   -1144.07553782 Ry
     estimated scf accuracy    <          6.2E-09 Ry

     total all-electron energy =    -46835.843418 Ry

     The total energy is the sum of the following terms:

     one-electron contribution =     -27.97128484 Ry
     hartree contribution      =      22.46717911 Ry
     xc contribution           =    -123.90617728 Ry
     ewald contribution        =    -116.18412629 Ry
     one-center paw contrib.   =    -898.47997240 Ry
     smearing contrib. (-TS)   =      -0.00115612 Ry

     total magnetization       =     0.00 Bohr mag/cell
     absolute magnetization    =     0.00 Bohr mag/cell

     convergence has been achieved in   7 iterations

     Forces acting on atoms (cartesian axes, Ry/au):

     atom    1 type  1   force =    -0.00000000    0.00000000    0.00000000
     atom    2 type  1   force =     0.00000000   -0.00000000   -0.00000000

     Total force =     0.000000     Total SCF correction =     0.000000


     Computing stress (Cartesian axis) and pressure

          total   stress  (Ry/bohr**3)                   (kbar)     P=   -0.03
   0.00000470  -0.00000000  -0.00000000          0.69     -0.00     -0.00
  -0.00000000   0.00000470  -0.00000000         -0.00      0.69     -0.00
  -0.00000000  -0.00000000  -0.00000993         -0.00     -0.00     -1.46


     number of scf cycles    =   5
     number of bfgs steps    =   4

     enthalpy old            =   -1144.0755240550 Ry
     enthalpy new            =   -1144.0755378255 Ry

     CASE: enthalpy_new < enthalpy_old

     new trust radius        =       0.0043920523 bohr
     new conv_thr            =       0.0000000100 Ry

     new unit-cell volume =    435.89954 a.u.^3 (    64.59365 Ang^3 )
     density =      8.17112 g/cm^3

CELL_PARAMETERS (alat=  6.80490380)
   1.005313924   0.000000000  -0.000000000
  -0.502656962   0.870627397  -0.000000000
   0.000000000  -0.000000000   1.580470582

ATOMIC_POSITIONS (crystal)
Tb       0.333333333   0.666666667   0.250000000
Tb       0.666666667   0.333333333   0.750000000



     Writing output data file pw.save/
     NEW-OLD atomic charge density approx. for the potential
     extrapolated charge   22.03731, renormalised to   22.00000

     total cpu time spent up to now is      432.5 secs

     Self-consistent Calculation

     iteration #  1     ecut=    35.00 Ry     beta= 0.70
     Davidson diagonalization with overlap
     ethr =  1.00E-06,  avg # of iterations =  2.3

     total cpu time spent up to now is      444.1 secs

     total energy              =   -1144.07547916 Ry
     Harris-Foulkes estimate   =   -1144.05585715 Ry
     estimated scf accuracy    <       0.00002962 Ry

     total magnetization       =     0.00 Bohr mag/cell
     absolute magnetization    =     0.00 Bohr mag/cell

     iteration #  2     ecut=    35.00 Ry     beta= 0.70
     Davidson diagonalization with overlap
     ethr =  1.35E-07,  avg # of iterations =  3.0

     total cpu time spent up to now is      457.0 secs

     total energy              =   -1144.07554272 Ry
     Harris-Foulkes estimate   =   -1144.07556013 Ry
     estimated scf accuracy    <       0.00003449 Ry

     total magnetization       =     0.00 Bohr mag/cell
     absolute magnetization    =     0.00 Bohr mag/cell

     iteration #  3     ecut=    35.00 Ry     beta= 0.70
     Davidson diagonalization with overlap
     ethr =  1.35E-07,  avg # of iterations =  1.8

     total cpu time spent up to now is      465.9 secs

     total energy              =   -1144.07554012 Ry
     Harris-Foulkes estimate   =   -1144.07554485 Ry
     estimated scf accuracy    <       0.00000729 Ry

     total magnetization       =     0.00 Bohr mag/cell
     absolute magnetization    =     0.00 Bohr mag/cell

     iteration #  4     ecut=    35.00 Ry     beta= 0.70
     Davidson diagonalization with overlap
     ethr =  3.31E-08,  avg # of iterations =  2.0

     total cpu time spent up to now is      476.3 secs

     total energy              =   -1144.07554115 Ry
     Harris-Foulkes estimate   =   -1144.07554128 Ry
     estimated scf accuracy    <       0.00000038 Ry

     total magnetization       =     0.00 Bohr mag/cell
     absolute magnetization    =     0.00 Bohr mag/cell

     iteration #  5     ecut=    35.00 Ry     beta= 0.70
     Davidson diagonalization with overlap
     ethr =  1.74E-09,  avg # of iterations =  1.4

     total cpu time spent up to now is      484.9 secs

     total energy              =   -1144.07554112 Ry
     Harris-Foulkes estimate   =   -1144.07554117 Ry
     estimated scf accuracy    <       0.00000016 Ry

     total magnetization       =     0.00 Bohr mag/cell
     absolute magnetization    =     0.00 Bohr mag/cell

     iteration #  6     ecut=    35.00 Ry     beta= 0.70
     Davidson diagonalization with overlap
     ethr =  7.15E-10,  avg # of iterations =  1.5

     total cpu time spent up to now is      493.6 secs

     total energy              =   -1144.07554109 Ry
     Harris-Foulkes estimate   =   -1144.07554112 Ry
     estimated scf accuracy    <       0.00000006 Ry

     total magnetization       =     0.00 Bohr mag/cell
     absolute magnetization    =     0.00 Bohr mag/cell

     iteration #  7     ecut=    35.00 Ry     beta= 0.70
     Davidson diagonalization with overlap
     ethr =  2.66E-10,  avg # of iterations =  2.4

     Magnetic moment per site:
     atom:    1    charge:    9.5059    magn:    0.0000    constr:    0.0000
     atom:    2    charge:    9.5059    magn:    0.0000    constr:    0.0000

     total cpu time spent up to now is      504.6 secs

     End of self-consistent calculation

     Number of k-points >= 100: set verbosity='high' to print the bands.

     the Fermi energy is    10.3113 ev

!    total energy              =   -1144.07554111 Ry
     Harris-Foulkes estimate   =   -1144.07554111 Ry
     estimated scf accuracy    <          3.7E-11 Ry

     total all-electron energy =    -46835.843421 Ry

     The total energy is the sum of the following terms:

     one-electron contribution =     -28.06958591 Ry
     hartree contribution      =      22.49545783 Ry
     xc contribution           =    -123.90379156 Ry
     ewald contribution        =    -116.11654738 Ry
     one-center paw contrib.   =    -898.47991055 Ry
     smearing contrib. (-TS)   =      -0.00116354 Ry

     total magnetization       =     0.00 Bohr mag/cell
     absolute magnetization    =     0.00 Bohr mag/cell

     convergence has been achieved in   7 iterations

     Forces acting on atoms (cartesian axes, Ry/au):

     atom    1 type  1   force =    -0.00000000    0.00000000    0.00000000
     atom    2 type  1   force =     0.00000000   -0.00000000   -0.00000000

     Total force =     0.000000     Total SCF correction =     0.000000


     Computing stress (Cartesian axis) and pressure

          total   stress  (Ry/bohr**3)                   (kbar)     P=   -0.68
  -0.00000118   0.00000000  -0.00000000         -0.17      0.00     -0.00
   0.00000000  -0.00000118  -0.00000000          0.00     -0.17     -0.00
  -0.00000000  -0.00000000  -0.00001143         -0.00     -0.00     -1.68


     number of scf cycles    =   6
     number of bfgs steps    =   5

     enthalpy old            =   -1144.0755378255 Ry
     enthalpy new            =   -1144.0755411066 Ry

     CASE: enthalpy_new < enthalpy_old

     new trust radius        =       0.0016168574 bohr
     new conv_thr            =       0.0000000100 Ry

     new unit-cell volume =    435.93237 a.u.^3 (    64.59851 Ang^3 )
     density =      8.17050 g/cm^3

CELL_PARAMETERS (alat=  6.80490380)
   1.005546478   0.000000000  -0.000000000
  -0.502773239   0.870828795  -0.000000000
   0.000000000  -0.000000000   1.579858606

ATOMIC_POSITIONS (crystal)
Tb       0.333333333   0.666666667   0.250000000
Tb       0.666666667   0.333333333   0.750000000



     Writing output data file pw.save/
     NEW-OLD atomic charge density approx. for the potential
     extrapolated charge   22.00165, renormalised to   22.00000

     total cpu time spent up to now is      513.5 secs

     Self-consistent Calculation

     iteration #  1     ecut=    35.00 Ry     beta= 0.70
     Davidson diagonalization with overlap
     ethr =  1.00E-06,  avg # of iterations =  2.0

     Threshold (ethr) on eigenvalues was too large:
     Diagonalizing with lowered threshold

     Davidson diagonalization with overlap
     ethr =  3.08E-10,  avg # of iterations =  3.4

     total cpu time spent up to now is      534.3 secs

     total energy              =   -1144.07554247 Ry
     Harris-Foulkes estimate   =   -1144.07467022 Ry
     estimated scf accuracy    <       0.00000008 Ry

     total magnetization       =     0.00 Bohr mag/cell
     absolute magnetization    =     0.00 Bohr mag/cell

     iteration #  2     ecut=    35.00 Ry     beta= 0.70
     Davidson diagonalization with overlap
     ethr =  3.54E-10,  avg # of iterations =  3.0

     total cpu time spent up to now is      546.4 secs

     total energy              =   -1144.07554261 Ry
     Harris-Foulkes estimate   =   -1144.07554264 Ry
     estimated scf accuracy    <       0.00000007 Ry

     total magnetization       =     0.00 Bohr mag/cell
     absolute magnetization    =     0.00 Bohr mag/cell

     iteration #  3     ecut=    35.00 Ry     beta= 0.70
     Davidson diagonalization with overlap
     ethr =  3.21E-10,  avg # of iterations =  1.7

     total cpu time spent up to now is      555.3 secs

     total energy              =   -1144.07554261 Ry
     Harris-Foulkes estimate   =   -1144.07554261 Ry
     estimated scf accuracy    <       0.00000001 Ry

     total magnetization       =     0.00 Bohr mag/cell
     absolute magnetization    =     0.00 Bohr mag/cell

     iteration #  4     ecut=    35.00 Ry     beta= 0.70
     Davidson diagonalization with overlap
     ethr =  5.82E-11,  avg # of iterations =  2.0

     Magnetic moment per site:
     atom:    1    charge:    9.5059    magn:    0.0000    constr:    0.0000
     atom:    2    charge:    9.5059    magn:    0.0000    constr:    0.0000

     total cpu time spent up to now is      566.0 secs

     End of self-consistent calculation

     Number of k-points >= 100: set verbosity='high' to print the bands.

     the Fermi energy is    10.3101 ev

!    total energy              =   -1144.07554261 Ry
     Harris-Foulkes estimate   =   -1144.07554261 Ry
     estimated scf accuracy    <          5.1E-11 Ry

     total all-electron energy =    -46835.843423 Ry

     The total energy is the sum of the following terms:

     one-electron contribution =     -28.07506707 Ry
     hartree contribution      =      22.49716458 Ry
     xc contribution           =    -123.90368751 Ry
     ewald contribution        =    -116.11287996 Ry
     one-center paw contrib.   =    -898.47990842 Ry
     smearing contrib. (-TS)   =      -0.00116423 Ry

     total magnetization       =     0.00 Bohr mag/cell
     absolute magnetization    =     0.00 Bohr mag/cell

     convergence has been achieved in   4 iterations

     Forces acting on atoms (cartesian axes, Ry/au):

     atom    1 type  1   force =    -0.00000000    0.00000000    0.00000000
     atom    2 type  1   force =     0.00000000   -0.00000000   -0.00000000

     Total force =     0.000000     Total SCF correction =     0.000000


     Computing stress (Cartesian axis) and pressure

          total   stress  (Ry/bohr**3)                   (kbar)     P=   -0.70
  -0.00000200   0.00000000  -0.00000000         -0.29      0.00     -0.00
   0.00000000  -0.00000200  -0.00000000          0.00     -0.29     -0.00
  -0.00000000   0.00000000  -0.00001019         -0.00      0.00     -1.50


     number of scf cycles    =   7
     number of bfgs steps    =   6

     enthalpy old            =   -1144.0755411066 Ry
     enthalpy new            =   -1144.0755426129 Ry

     CASE: enthalpy_new < enthalpy_old

     new trust radius        =       0.0017792991 bohr
     new conv_thr            =       0.0000000100 Ry

     new unit-cell volume =    435.84445 a.u.^3 (    64.58548 Ang^3 )
     density =      8.17215 g/cm^3

CELL_PARAMETERS (alat=  6.80490380)
   1.005659348   0.000000000  -0.000000000
  -0.502829674   0.870926543  -0.000000000
  -0.000000000  -0.000000000   1.579185431

ATOMIC_POSITIONS (crystal)
Tb       0.333333333   0.666666667   0.250000000
Tb       0.666666667   0.333333333   0.750000000



     Writing output data file pw.save/
     NEW-OLD atomic charge density approx. for the potential
     extrapolated charge   21.99557, renormalised to   22.00000

     total cpu time spent up to now is      574.3 secs

     Self-consistent Calculation

     iteration #  1     ecut=    35.00 Ry     beta= 0.70
     Davidson diagonalization with overlap
     ethr =  1.00E-06,  avg # of iterations =  2.0

     Threshold (ethr) on eigenvalues was too large:
     Diagonalizing with lowered threshold

     Davidson diagonalization with overlap
     ethr =  1.72E-09,  avg # of iterations =  2.5

     total cpu time spent up to now is      593.5 secs

     total energy              =   -1144.07554328 Ry
     Harris-Foulkes estimate   =   -1144.07787796 Ry
     estimated scf accuracy    <       0.00000042 Ry

     total magnetization       =     0.00 Bohr mag/cell
     absolute magnetization    =     0.00 Bohr mag/cell

     iteration #  2     ecut=    35.00 Ry     beta= 0.70
     Davidson diagonalization with overlap
     ethr =  1.92E-09,  avg # of iterations =  3.0

     total cpu time spent up to now is      606.3 secs

     total energy              =   -1144.07554417 Ry
     Harris-Foulkes estimate   =   -1144.07554444 Ry
     estimated scf accuracy    <       0.00000050 Ry

     total magnetization       =     0.00 Bohr mag/cell
     absolute magnetization    =     0.00 Bohr mag/cell

     iteration #  3     ecut=    35.00 Ry     beta= 0.70
     Davidson diagonalization with overlap
     ethr =  1.92E-09,  avg # of iterations =  1.8

     total cpu time spent up to now is      615.3 secs

     total energy              =   -1144.07554410 Ry
     Harris-Foulkes estimate   =   -1144.07554420 Ry
     estimated scf accuracy    <       0.00000011 Ry

     total magnetization       =     0.00 Bohr mag/cell
     absolute magnetization    =     0.00 Bohr mag/cell

     iteration #  4     ecut=    35.00 Ry     beta= 0.70
     Davidson diagonalization with overlap
     ethr =  4.85E-10,  avg # of iterations =  2.0

     Magnetic moment per site:
     atom:    1    charge:    9.5059    magn:    0.0000    constr:    0.0000
     atom:    2    charge:    9.5059    magn:    0.0000    constr:    0.0000

     total cpu time spent up to now is      626.1 secs

     End of self-consistent calculation

     Number of k-points >= 100: set verbosity='high' to print the bands.

     the Fermi energy is    10.3123 ev

!    total energy              =   -1144.07554413 Ry
     Harris-Foulkes estimate   =   -1144.07554413 Ry
     estimated scf accuracy    <          1.1E-09 Ry

     total all-electron energy =    -46835.843424 Ry

     The total energy is the sum of the following terms:

     one-electron contribution =     -28.06488809 Ry
     hartree contribution      =      22.49448324 Ry
     xc contribution           =    -123.90401869 Ry
     ewald contribution        =    -116.12002333 Ry
     one-center paw contrib.   =    -898.47993337 Ry
     smearing contrib. (-TS)   =      -0.00116390 Ry

     total magnetization       =     0.00 Bohr mag/cell
     absolute magnetization    =     0.00 Bohr mag/cell

     convergence has been achieved in   4 iterations

     Forces acting on atoms (cartesian axes, Ry/au):

     atom    1 type  1   force =     0.00000000    0.00000000    0.00000000
     atom    2 type  1   force =    -0.00000000   -0.00000000   -0.00000000

     Total force =     0.000000     Total SCF correction =     0.000000


     Computing stress (Cartesian axis) and pressure

          total   stress  (Ry/bohr**3)                   (kbar)     P=   -0.56
  -0.00000173  -0.00000000  -0.00000000         -0.25     -0.00     -0.00
  -0.00000000  -0.00000173  -0.00000000         -0.00     -0.25     -0.00
  -0.00000000  -0.00000000  -0.00000804         -0.00     -0.00     -1.18


     number of scf cycles    =   8
     number of bfgs steps    =   7

     enthalpy old            =   -1144.0755426129 Ry
     enthalpy new            =   -1144.0755441313 Ry

     CASE: enthalpy_new < enthalpy_old

     new trust radius        =       0.0026698170 bohr
     new conv_thr            =       0.0000000100 Ry

     new unit-cell volume =    435.68008 a.u.^3 (    64.56113 Ang^3 )
     density =      8.17523 g/cm^3

CELL_PARAMETERS (alat=  6.80490380)
   1.005791308   0.000000000  -0.000000000
  -0.502895654   0.871040823  -0.000000000
  -0.000000000  -0.000000000   1.578175670

ATOMIC_POSITIONS (crystal)
Tb       0.333333333   0.666666667   0.250000000
Tb       0.666666667   0.333333333   0.750000000



     Writing output data file pw.save/
     NEW-OLD atomic charge density approx. for the potential
     extrapolated charge   21.99172, renormalised to   22.00000

     total cpu time spent up to now is      634.4 secs

     Self-consistent Calculation

     iteration #  1     ecut=    35.00 Ry     beta= 0.70
     Davidson diagonalization with overlap
     ethr =  1.00E-06,  avg # of iterations =  2.0

     Threshold (ethr) on eigenvalues was too large:
     Diagonalizing with lowered threshold

     Davidson diagonalization with overlap
     ethr =  5.90E-09,  avg # of iterations =  2.2

     total cpu time spent up to now is      653.4 secs

     total energy              =   -1144.07554285 Ry
     Harris-Foulkes estimate   =   -1144.07990624 Ry
     estimated scf accuracy    <       0.00000141 Ry

     total magnetization       =     0.00 Bohr mag/cell
     absolute magnetization    =     0.00 Bohr mag/cell

     iteration #  2     ecut=    35.00 Ry     beta= 0.70
     Davidson diagonalization with overlap
     ethr =  6.41E-09,  avg # of iterations =  3.0

     total cpu time spent up to now is      666.3 secs

     total energy              =   -1144.07554593 Ry
     Harris-Foulkes estimate   =   -1144.07554682 Ry
     estimated scf accuracy    <       0.00000173 Ry

     total magnetization       =     0.00 Bohr mag/cell
     absolute magnetization    =     0.00 Bohr mag/cell

     iteration #  3     ecut=    35.00 Ry     beta= 0.70
     Davidson diagonalization with overlap
     ethr =  6.41E-09,  avg # of iterations =  1.8

     total cpu time spent up to now is      675.4 secs

     total energy              =   -1144.07554571 Ry
     Harris-Foulkes estimate   =   -1144.07554603 Ry
     estimated scf accuracy    <       0.00000038 Ry

     total magnetization       =     0.00 Bohr mag/cell
     absolute magnetization    =     0.00 Bohr mag/cell

     iteration #  4     ecut=    35.00 Ry     beta= 0.70
     Davidson diagonalization with overlap
     ethr =  1.71E-09,  avg # of iterations =  2.0

     Magnetic moment per site:
     atom:    1    charge:    9.5057    magn:    0.0000    constr:    0.0000
     atom:    2    charge:    9.5057    magn:    0.0000    constr:    0.0000

     total cpu time spent up to now is      687.3 secs

     End of self-consistent calculation

     Number of k-points >= 100: set verbosity='high' to print the bands.

     the Fermi energy is    10.3165 ev

!    total energy              =   -1144.07554580 Ry
     Harris-Foulkes estimate   =   -1144.07554581 Ry
     estimated scf accuracy    <          1.1E-09 Ry

     total all-electron energy =    -46835.843426 Ry

     The total energy is the sum of the following terms:

     one-electron contribution =     -28.04522606 Ry
     hartree contribution      =      22.48894241 Ry
     xc contribution           =    -123.90450098 Ry
     ewald contribution        =    -116.13365998 Ry
     one-center paw contrib.   =    -898.47993804 Ry
     smearing contrib. (-TS)   =      -0.00116315 Ry

     total magnetization       =     0.00 Bohr mag/cell
     absolute magnetization    =     0.00 Bohr mag/cell

     convergence has been achieved in   4 iterations

     Forces acting on atoms (cartesian axes, Ry/au):

     atom    1 type  1   force =     0.00000000    0.00000000    0.00000000
     atom    2 type  1   force =    -0.00000000   -0.00000000   -0.00000000

     Total force =     0.000000     Total SCF correction =     0.000000


     Computing stress (Cartesian axis) and pressure

          total   stress  (Ry/bohr**3)                   (kbar)     P=   -0.41
  -0.00000164   0.00000000  -0.00000000         -0.24      0.00     -0.00
  -0.00000000  -0.00000164  -0.00000000         -0.00     -0.24     -0.00
  -0.00000000  -0.00000000  -0.00000514         -0.00     -0.00     -0.76


     number of scf cycles    =   9
     number of bfgs steps    =   8

     enthalpy old            =   -1144.0755441313 Ry
     enthalpy new            =   -1144.0755458048 Ry

     CASE: enthalpy_new < enthalpy_old

     new trust radius        =       0.0040065322 bohr
     new conv_thr            =       0.0000000100 Ry

     new unit-cell volume =    435.29010 a.u.^3 (    64.50334 Ang^3 )
     density =      8.18256 g/cm^3

CELL_PARAMETERS (alat=  6.80490380)
   1.005823843   0.000000000  -0.000000000
  -0.502911922   0.871069000  -0.000000000
  -0.000000000  -0.000000000   1.576661027

ATOMIC_POSITIONS (crystal)
Tb       0.333333333   0.666666667   0.250000000
Tb       0.666666667   0.333333333   0.750000000



     Writing output data file pw.save/
     NEW-OLD atomic charge density approx. for the potential
     extrapolated charge   21.98033, renormalised to   22.00000

     total cpu time spent up to now is      696.3 secs

     Self-consistent Calculation

     iteration #  1     ecut=    35.00 Ry     beta= 0.70
     Davidson diagonalization with overlap
     ethr =  1.00E-06,  avg # of iterations =  2.0

     Threshold (ethr) on eigenvalues was too large:
     Diagonalizing with lowered threshold

     Davidson diagonalization with overlap
     ethr =  3.61E-08,  avg # of iterations =  1.3

     total cpu time spent up to now is      714.8 secs

     total energy              =   -1144.07553003 Ry
     Harris-Foulkes estimate   =   -1144.08587430 Ry
     estimated scf accuracy    <       0.00000813 Ry

     total magnetization       =     0.00 Bohr mag/cell
     absolute magnetization    =     0.00 Bohr mag/cell

     iteration #  2     ecut=    35.00 Ry     beta= 0.70
     Davidson diagonalization with overlap
     ethr =  3.69E-08,  avg # of iterations =  3.0

     total cpu time spent up to now is      728.0 secs

     total energy              =   -1144.07554751 Ry
     Harris-Foulkes estimate   =   -1144.07555246 Ry
     estimated scf accuracy    <       0.00000967 Ry

     total magnetization       =     0.00 Bohr mag/cell
     absolute magnetization    =     0.00 Bohr mag/cell

     iteration #  3     ecut=    35.00 Ry     beta= 0.70
     Davidson diagonalization with overlap
     ethr =  3.69E-08,  avg # of iterations =  1.8

     total cpu time spent up to now is      737.0 secs

     total energy              =   -1144.07554675 Ry
     Harris-Foulkes estimate   =   -1144.07554810 Ry
     estimated scf accuracy    <       0.00000207 Ry

     total magnetization       =     0.00 Bohr mag/cell
     absolute magnetization    =     0.00 Bohr mag/cell

     iteration #  4     ecut=    35.00 Ry     beta= 0.70
     Davidson diagonalization with overlap
     ethr =  9.40E-09,  avg # of iterations =  2.0

     total cpu time spent up to now is      747.2 secs

     total energy              =   -1144.07554699 Ry
     Harris-Foulkes estimate   =   -1144.07554704 Ry
     estimated scf accuracy    <       0.00000016 Ry

     total magnetization       =     0.00 Bohr mag/cell
     absolute magnetization    =     0.00 Bohr mag/cell

     iteration #  5     ecut=    35.00 Ry     beta= 0.70
     Davidson diagonalization with overlap
     ethr =  7.22E-10,  avg # of iterations =  1.1

     total cpu time spent up to now is      755.5 secs

     total energy              =   -1144.07554693 Ry
     Harris-Foulkes estimate   =   -1144.07554699 Ry
     estimated scf accuracy    <       0.00000008 Ry

     total magnetization       =     0.00 Bohr mag/cell
     absolute magnetization    =     0.00 Bohr mag/cell

     iteration #  6     ecut=    35.00 Ry     beta= 0.70
     Davidson diagonalization with overlap
     ethr =  3.78E-10,  avg # of iterations =  2.0

     Magnetic moment per site:
     atom:    1    charge:    9.5052    magn:    0.0000    constr:    0.0000
     atom:    2    charge:    9.5052    magn:    0.0000    constr:    0.0000

     total cpu time spent up to now is      764.9 secs

     End of self-consistent calculation

     Number of k-points >= 100: set verbosity='high' to print the bands.

     the Fermi energy is    10.3270 ev

!    total energy              =   -1144.07554693 Ry
     Harris-Foulkes estimate   =   -1144.07554694 Ry
     estimated scf accuracy    <          5.2E-09 Ry

     total all-electron energy =    -46835.843427 Ry

     The total energy is the sum of the following terms:

     one-electron contribution =     -27.99692316 Ry
     hartree contribution      =      22.47515975 Ry
     xc contribution           =    -123.90562698 Ry
     ewald contribution        =    -116.16706431 Ry
     one-center paw contrib.   =    -898.47993144 Ry
     smearing contrib. (-TS)   =      -0.00116079 Ry

     total magnetization       =     0.00 Bohr mag/cell
     absolute magnetization    =     0.00 Bohr mag/cell

     convergence has been achieved in   6 iterations

     Forces acting on atoms (cartesian axes, Ry/au):

     atom    1 type  1   force =     0.00000000   -0.00000000   -0.00000000
     atom    2 type  1   force =    -0.00000000    0.00000000    0.00000000

     Total force =     0.000000     Total SCF correction =     0.000000


     Computing stress (Cartesian axis) and pressure

          total   stress  (Ry/bohr**3)                   (kbar)     P=   -0.12
  -0.00000093   0.00000000   0.00000000         -0.14      0.00      0.00
   0.00000000  -0.00000093   0.00000000          0.00     -0.14      0.00
   0.00000000   0.00000000  -0.00000067          0.00      0.00     -0.10


     bfgs converged in  10 scf cycles and   9 bfgs steps
     (criteria: energy <  1.0E-04 Ry, force <  1.0E-03Ry/Bohr, cell <  5.0E-01kbar)

     End of BFGS Geometry Optimization

     Final enthalpy =   -1144.0755469343 Ry
Begin final coordinates
     new unit-cell volume =    435.29010 a.u.^3 (    64.50334 Ang^3 )
     density =      8.18256 g/cm^3

CELL_PARAMETERS (alat=  6.80490380)
   1.005823843   0.000000000  -0.000000000
  -0.502911922   0.871069000  -0.000000000
  -0.000000000  -0.000000000   1.576661027

ATOMIC_POSITIONS (crystal)
Tb       0.333333333   0.666666667   0.250000000
Tb       0.666666667   0.333333333   0.750000000
End final coordinates



     Writing output data file pw.save/

     A final scf calculation at the relaxed structure.
     The G-vectors are recalculated for the final unit cell
     Results may differ from those at the preceding step.

     Parallelization info
     --------------------
     sticks:   dense  smooth     PW     G-vecs:    dense   smooth      PW
     Min         372     225     75                12774     6071    1153
     Max         373     226     76                12777     6072    1156
     Sum         745     451    151                25551    12143    2309



     bravais-lattice index     =            0
     lattice parameter (alat)  =       6.8049  a.u.
     unit-cell volume          =     435.2901 (a.u.)^3
     number of atoms/cell      =            2
     number of atomic types    =            1
     number of electrons       =        22.00
     number of Kohn-Sham states=           15
     kinetic-energy cutoff     =      35.0000  Ry
     charge density cutoff     =     229.0000  Ry
     convergence threshold     =      1.0E-08
     mixing beta               =       0.7000
     number of iterations used =            8  plain     mixing
     Exchange-correlation      = SLA PW PBX PBC ( 1  4  3  4 0 0)

     celldm(1)=   6.804904  celldm(2)=   0.000000  celldm(3)=   0.000000
     celldm(4)=   0.000000  celldm(5)=   0.000000  celldm(6)=   0.000000

     crystal axes: (cart. coord. in units of alat)
               a(1) = (   1.005824   0.000000  -0.000000 )  
               a(2) = (  -0.502912   0.871069  -0.000000 )  
               a(3) = (  -0.000000  -0.000000   1.576661 )  

     reciprocal axes: (cart. coord. in units 2 pi/alat)
               b(1) = (  0.994210  0.574007  0.000000 )  
               b(2) = ( -0.000000  1.148015  0.000000 )  
               b(3) = (  0.000000  0.000000  0.634252 )  


     PseudoPot. # 1 for Tb read from file:
     ./potentials/Tb.pbe-spdn-kjpaw_psl.1.0.0.UPF
     MD5 check sum: 1d4feb5b01b570ab3d1af2cc1fee54c1
     Pseudo is Projector augmented-wave + core cor, Zval = 11.0
     Generated using "atomic" code by A. Dal Corso v.6.2.2
     Shape of augmentation charge: PSQ
     Using radial grid of 1263 points,  6 beta functions with: 
                l(1) =   0
                l(2) =   0
                l(3) =   1
                l(4) =   1
                l(5) =   2
                l(6) =   2
     Q(r) pseudized with 0 coefficients 


     atomic species   valence    mass     pseudopotential
        Tb            11.00   158.92500     Tb( 1.00)

     Starting magnetic structure 
     atomic species   magnetization
        Tb           0.000

     24 Sym. Ops., with inversion, found (12 have fractional translation)



   Cartesian axes

     site n.     atom                  positions (alat units)
         1           Tb  tau(   1) = (  -0.0000000   0.5807127   0.3941653  )
         2           Tb  tau(   2) = (   0.5029119   0.2903563   1.1824958  )

     number of k points=    90  Methfessel-Paxton smearing, width (Ry)=  0.0200
                       cart. coord. in units 2pi/alat
        k(    1) = (   0.0497105   0.0861011   0.0528543), wk =   0.0066667
        k(    2) = (   0.0497105   0.0861011   0.1585629), wk =   0.0066667
        k(    3) = (   0.0497105   0.0861011   0.2642716), wk =   0.0066667
        k(    4) = (   0.0497105   0.2009026   0.0528543), wk =   0.0133333
        k(    5) = (   0.0497105   0.2009026   0.1585629), wk =   0.0133333
        k(    6) = (   0.0497105   0.2009026   0.2642716), wk =   0.0133333
        k(    7) = (   0.0497105   0.3157040   0.0528543), wk =   0.0133333
        k(    8) = (   0.0497105   0.3157040   0.1585629), wk =   0.0133333
        k(    9) = (   0.0497105   0.3157040   0.2642716), wk =   0.0133333
        k(   10) = (   0.0497105   0.4305055   0.0528543), wk =   0.0133333
        k(   11) = (   0.0497105   0.4305055   0.1585629), wk =   0.0133333
        k(   12) = (   0.0497105   0.4305055   0.2642716), wk =   0.0133333
        k(   13) = (   0.0497105   0.5453070   0.0528543), wk =   0.0133333
        k(   14) = (   0.0497105   0.5453070   0.1585629), wk =   0.0133333
        k(   15) = (   0.0497105   0.5453070   0.2642716), wk =   0.0133333
        k(   16) = (   0.0497105  -0.4879062   0.0528543), wk =   0.0133333
        k(   17) = (   0.0497105  -0.4879062   0.1585629), wk =   0.0133333
        k(   18) = (   0.0497105  -0.4879062   0.2642716), wk =   0.0133333
        k(   19) = (   0.0497105  -0.3731048   0.0528543), wk =   0.0133333
        k(   20) = (   0.0497105  -0.3731048   0.1585629), wk =   0.0133333
        k(   21) = (   0.0497105  -0.3731048   0.2642716), wk =   0.0133333
        k(   22) = (   0.0497105  -0.2583033   0.0528543), wk =   0.0133333
        k(   23) = (   0.0497105  -0.2583033   0.1585629), wk =   0.0133333
        k(   24) = (   0.0497105  -0.2583033   0.2642716), wk =   0.0133333
        k(   25) = (   0.0497105  -0.1435018   0.0528543), wk =   0.0133333
        k(   26) = (   0.0497105  -0.1435018   0.1585629), wk =   0.0133333
        k(   27) = (   0.0497105  -0.1435018   0.2642716), wk =   0.0133333
        k(   28) = (   0.0497105  -0.0287004   0.0528543), wk =   0.0066667
        k(   29) = (   0.0497105  -0.0287004   0.1585629), wk =   0.0066667
        k(   30) = (   0.0497105  -0.0287004   0.2642716), wk =   0.0066667
        k(   31) = (   0.1491315   0.2583033   0.0528543), wk =   0.0066667
        k(   32) = (   0.1491315   0.2583033   0.1585629), wk =   0.0066667
        k(   33) = (   0.1491315   0.2583033   0.2642716), wk =   0.0066667
        k(   34) = (   0.1491315   0.3731048   0.0528543), wk =   0.0133333
        k(   35) = (   0.1491315   0.3731048   0.1585629), wk =   0.0133333
        k(   36) = (   0.1491315   0.3731048   0.2642716), wk =   0.0133333
        k(   37) = (   0.1491315   0.4879062   0.0528543), wk =   0.0133333
        k(   38) = (   0.1491315   0.4879062   0.1585629), wk =   0.0133333
        k(   39) = (   0.1491315   0.4879062   0.2642716), wk =   0.0133333
        k(   40) = (   0.1491315   0.6027077   0.0528543), wk =   0.0133333
        k(   41) = (   0.1491315   0.6027077   0.1585629), wk =   0.0133333
        k(   42) = (   0.1491315   0.6027077   0.2642716), wk =   0.0133333
        k(   43) = (   0.1491315  -0.4305055   0.0528543), wk =   0.0133333
        k(   44) = (   0.1491315  -0.4305055   0.1585629), wk =   0.0133333
        k(   45) = (   0.1491315  -0.4305055   0.2642716), wk =   0.0133333
        k(   46) = (   0.1491315  -0.3157040   0.0528543), wk =   0.0133333
        k(   47) = (   0.1491315  -0.3157040   0.1585629), wk =   0.0133333
        k(   48) = (   0.1491315  -0.3157040   0.2642716), wk =   0.0133333
        k(   49) = (   0.1491315  -0.2009026   0.0528543), wk =   0.0133333
        k(   50) = (   0.1491315  -0.2009026   0.1585629), wk =   0.0133333
        k(   51) = (   0.1491315  -0.2009026   0.2642716), wk =   0.0133333
        k(   52) = (   0.1491315  -0.0861011   0.0528543), wk =   0.0066667
        k(   53) = (   0.1491315  -0.0861011   0.1585629), wk =   0.0066667
        k(   54) = (   0.1491315  -0.0861011   0.2642716), wk =   0.0066667
        k(   55) = (   0.2485525   0.4305055   0.0528543), wk =   0.0066667
        k(   56) = (   0.2485525   0.4305055   0.1585629), wk =   0.0066667
        k(   57) = (   0.2485525   0.4305055   0.2642716), wk =   0.0066667
        k(   58) = (   0.2485525   0.5453070   0.0528543), wk =   0.0133333
        k(   59) = (   0.2485525   0.5453070   0.1585629), wk =   0.0133333
        k(   60) = (   0.2485525   0.5453070   0.2642716), wk =   0.0133333
        k(   61) = (   0.2485525   0.6601084   0.0528543), wk =   0.0133333
        k(   62) = (   0.2485525   0.6601084   0.1585629), wk =   0.0133333
        k(   63) = (   0.2485525   0.6601084   0.2642716), wk =   0.0133333
        k(   64) = (   0.2485525  -0.3731048   0.0528543), wk =   0.0133333
        k(   65) = (   0.2485525  -0.3731048   0.1585629), wk =   0.0133333
        k(   66) = (   0.2485525  -0.3731048   0.2642716), wk =   0.0133333
        k(   67) = (   0.2485525  -0.2583033   0.0528543), wk =   0.0133333
        k(   68) = (   0.2485525  -0.2583033   0.1585629), wk =   0.0133333
        k(   69) = (   0.2485525  -0.2583033   0.2642716), wk =   0.0133333
        k(   70) = (   0.2485525  -0.1435018   0.0528543), wk =   0.0066667
        k(   71) = (   0.2485525  -0.1435018   0.1585629), wk =   0.0066667
        k(   72) = (   0.2485525  -0.1435018   0.2642716), wk =   0.0066667
        k(   73) = (   0.3479735   0.6027077   0.0528543), wk =   0.0066667
        k(   74) = (   0.3479735   0.6027077   0.1585629), wk =   0.0066667
        k(   75) = (   0.3479735   0.6027077   0.2642716), wk =   0.0066667
        k(   76) = (   0.3479735   0.7175092   0.0528543), wk =   0.0133333
        k(   77) = (   0.3479735   0.7175092   0.1585629), wk =   0.0133333
        k(   78) = (   0.3479735   0.7175092   0.2642716), wk =   0.0133333
        k(   79) = (   0.3479735  -0.3157040   0.0528543), wk =   0.0133333
        k(   80) = (   0.3479735  -0.3157040   0.1585629), wk =   0.0133333
        k(   81) = (   0.3479735  -0.3157040   0.2642716), wk =   0.0133333
        k(   82) = (   0.3479735  -0.2009026   0.0528543), wk =   0.0066667
        k(   83) = (   0.3479735  -0.2009026   0.1585629), wk =   0.0066667
        k(   84) = (   0.3479735  -0.2009026   0.2642716), wk =   0.0066667
        k(   85) = (   0.4473944   0.7749099   0.0528543), wk =   0.0066667
        k(   86) = (   0.4473944   0.7749099   0.1585629), wk =   0.0066667
        k(   87) = (   0.4473944   0.7749099   0.2642716), wk =   0.0066667
        k(   88) = (   0.4473944  -0.2583033   0.0528543), wk =   0.0066667
        k(   89) = (   0.4473944  -0.2583033   0.1585629), wk =   0.0066667
        k(   90) = (   0.4473944  -0.2583033   0.2642716), wk =   0.0066667

     Dense  grid:    25551 G-vectors     FFT dimensions: (  36,  36,  54)

     Smooth grid:    12143 G-vectors     FFT dimensions: (  25,  25,  48)

     Estimated max dynamical RAM per process >      87.04 MB

     Estimated total dynamical RAM >     174.08 MB
     Generating pointlists ...

     Initial potential from superposition of free atoms

     starting charge   21.95757, renormalised to   22.00000
     Starting wfcs are   26 randomized atomic wfcs
     Checking if some PAW data can be deallocated... 

     total cpu time spent up to now is      777.0 secs

     Self-consistent Calculation

     iteration #  1     ecut=    35.00 Ry     beta= 0.70
     Davidson diagonalization with overlap
     ethr =  1.00E-06,  avg # of iterations =  8.3

     total cpu time spent up to now is      801.9 secs

     total energy              =   -1144.07239167 Ry
     Harris-Foulkes estimate   =   -1144.08244827 Ry
     estimated scf accuracy    <       0.01756567 Ry

     total magnetization       =    -0.00 Bohr mag/cell
     absolute magnetization    =     0.00 Bohr mag/cell

     iteration #  2     ecut=    35.00 Ry     beta= 0.70
     Davidson diagonalization with overlap
     ethr =  7.98E-05,  avg # of iterations =  2.0

     total cpu time spent up to now is      812.2 secs

     total energy              =   -1144.07549952 Ry
     Harris-Foulkes estimate   =   -1144.07562618 Ry
     estimated scf accuracy    <       0.00046682 Ry

     total magnetization       =    -0.00 Bohr mag/cell
     absolute magnetization    =     0.00 Bohr mag/cell

     iteration #  3     ecut=    35.00 Ry     beta= 0.70
     Davidson diagonalization with overlap
     ethr =  2.12E-06,  avg # of iterations =  2.0

     total cpu time spent up to now is      822.0 secs

     total energy              =   -1144.07555490 Ry
     Harris-Foulkes estimate   =   -1144.07555307 Ry
     estimated scf accuracy    <       0.00003423 Ry

     total magnetization       =    -0.00 Bohr mag/cell
     absolute magnetization    =     0.00 Bohr mag/cell

     iteration #  4     ecut=    35.00 Ry     beta= 0.70
     Davidson diagonalization with overlap
     ethr =  1.56E-07,  avg # of iterations =  2.0

     total cpu time spent up to now is      831.8 secs

     total energy              =   -1144.07555821 Ry
     Harris-Foulkes estimate   =   -1144.07555827 Ry
     estimated scf accuracy    <       0.00000029 Ry

     total magnetization       =    -0.00 Bohr mag/cell
     absolute magnetization    =     0.00 Bohr mag/cell

     iteration #  5     ecut=    35.00 Ry     beta= 0.70
     Davidson diagonalization with overlap
     ethr =  1.32E-09,  avg # of iterations =  3.8

     total cpu time spent up to now is      844.5 secs

     total energy              =   -1144.07555835 Ry
     Harris-Foulkes estimate   =   -1144.07555836 Ry
     estimated scf accuracy    <       0.00000002 Ry

     total magnetization       =    -0.00 Bohr mag/cell
     absolute magnetization    =     0.00 Bohr mag/cell

     iteration #  6     ecut=    35.00 Ry     beta= 0.70
     Davidson diagonalization with overlap
     ethr =  1.06E-10,  avg # of iterations =  2.1

     Magnetic moment per site:
     atom:    1    charge:    9.4890    magn:   -0.0000    constr:    0.0000
     atom:    2    charge:    9.4890    magn:   -0.0000    constr:    0.0000

     total cpu time spent up to now is      854.5 secs

     End of self-consistent calculation

     Number of k-points >= 100: set verbosity='high' to print the bands.

     the Fermi energy is    10.3269 ev

!    total energy              =   -1144.07555836 Ry
     Harris-Foulkes estimate   =   -1144.07555836 Ry
     estimated scf accuracy    <          7.1E-10 Ry

     total all-electron energy =    -46835.843439 Ry

     The total energy is the sum of the following terms:

     one-electron contribution =     -27.99735125 Ry
     hartree contribution      =      22.47543705 Ry
     xc contribution           =    -123.90546408 Ry
     ewald contribution        =    -116.16706431 Ry
     one-center paw contrib.   =    -898.47995502 Ry
     smearing contrib. (-TS)   =      -0.00116075 Ry

     total magnetization       =    -0.00 Bohr mag/cell
     absolute magnetization    =     0.00 Bohr mag/cell

     convergence has been achieved in   6 iterations

     Forces acting on atoms (cartesian axes, Ry/au):

     atom    1 type  1   force =    -0.00000000    0.00000000    0.00000000
     atom    2 type  1   force =     0.00000000   -0.00000000   -0.00000000

     Total force =     0.000000     Total SCF correction =     0.000000


     Computing stress (Cartesian axis) and pressure

          total   stress  (Ry/bohr**3)                   (kbar)     P=   -0.09
  -0.00000078   0.00000000  -0.00000000         -0.11      0.00     -0.00
   0.00000000  -0.00000078   0.00000000          0.00     -0.11      0.00
   0.00000000  -0.00000000  -0.00000036          0.00     -0.00     -0.05


     Writing output data file pw.save/

     init_run     :     14.77s CPU     14.00s WALL (       2 calls)
     electrons    :    860.02s CPU    758.82s WALL (      11 calls)
     update_pot   :     18.42s CPU     18.85s WALL (       9 calls)
     forces       :     12.67s CPU     13.33s WALL (      11 calls)
     stress       :     40.28s CPU     41.57s WALL (      11 calls)

     Called by init_run:
     wfcinit      :     10.50s CPU      9.64s WALL (       2 calls)
     potinit      :      1.92s CPU      2.02s WALL (       2 calls)
     hinit0       :      2.03s CPU      1.94s WALL (       2 calls)

     Called by electrons:
     c_bands      :    718.02s CPU    611.64s WALL (      70 calls)
     sum_band     :     71.19s CPU     71.13s WALL (      70 calls)
     v_of_rho     :     10.64s CPU      9.69s WALL (      77 calls)
     newd         :      4.72s CPU      8.58s WALL (      77 calls)
     PAW_pot      :     71.66s CPU     75.57s WALL (      86 calls)
     mix_rho      :      0.78s CPU      0.56s WALL (      70 calls)

     Called by c_bands:
     init_us_2    :     15.80s CPU     13.43s WALL (   31140 calls)
     cegterg      :    670.08s CPU    574.62s WALL (   12600 calls)

     Called by sum_band:
     sum_band:bec :      0.17s CPU      0.25s WALL (   14220 calls)
     addusdens    :     11.81s CPU     11.68s WALL (      70 calls)

     Called by *egterg:
     h_psi        :    497.89s CPU    409.79s WALL (   43113 calls)
     s_psi        :     16.64s CPU     13.23s WALL (   43113 calls)
     g_psi        :      3.80s CPU      2.54s WALL (   30153 calls)
     cdiaghg      :     93.66s CPU    102.65s WALL (   40413 calls)

     Called by h_psi:
     h_psi:pot    :    495.59s CPU    407.78s WALL (   43113 calls)
     h_psi:calbec :     19.86s CPU     16.42s WALL (   43113 calls)
     vloc_psi     :    457.47s CPU    375.99s WALL (   43113 calls)
     add_vuspsi   :     17.64s CPU     14.19s WALL (   43113 calls)

     General routines
     calbec       :     27.06s CPU     23.09s WALL (   67233 calls)
     fft          :      3.20s CPU      3.24s WALL (    2360 calls)
     ffts         :      0.05s CPU      0.10s WALL (     294 calls)
     fftw         :    441.48s CPU    369.64s WALL ( 1216580 calls)
     interpolate  :      0.23s CPU      0.26s WALL (     154 calls)

     Parallel routines
     fft_scatt_xy :     79.44s CPU     66.51s WALL ( 1219234 calls)
     fft_scatt_yz :     79.86s CPU     70.01s WALL ( 1219234 calls)

     PWSCF        :  15m56.55s CPU  14m18.26s WALL


   This run was terminated on:   8: 2:23   7Nov2020            

=------------------------------------------------------------------------------=
   JOB DONE.
=------------------------------------------------------------------------------=
