--------------------------------------------------------------------------
WARNING: Linux kernel CMA support was requested via the
btl_vader_single_copy_mechanism MCA variable, but CMA support is
not available due to restrictive ptrace settings.

The vader shared memory BTL will fall back on another single-copy
mechanism if one is available. This may result in lower performance.

  Local host: DESKTOP-12SE80T
--------------------------------------------------------------------------

     Program PWSCF v.6.4.1 starts on  6Nov2020 at 11:29: 6 

     This program is part of the open-source Quantum ESPRESSO suite
     for quantum simulation of materials; please cite
         "P. Giannozzi et al., J. Phys.:Condens. Matter 21 395502 (2009);
         "P. Giannozzi et al., J. Phys.:Condens. Matter 29 465901 (2017);
          URL http://www.quantum-espresso.org", 
     in publications or presentations arising from this work. More details at
     http://www.quantum-espresso.org/quote

     Parallel version (MPI), running on     2 processors

     MPI processes distributed on     1 nodes
     R & G space division:  proc/nbgrp/npool/nimage =       2
     Waiting for input...
     Reading input from standard input

     Current dimensions of program PWSCF are:
     Max number of different atomic species (ntypx) = 10
     Max number of k-points (npk) =  40000
     Max angular momentum in pseudopotentials (lmaxx) =  3
               file Y.pbe-spn-kjpaw_psl.1.0.0.UPF: wavefunction(s)  4S 4P renormalized

     Subspace diagonalization in iterative solution of the eigenvalue problem:
     a serial algorithm will be used

     Message from routine setup:
     DEPRECATED: symmetry with ibrav=0, use correct ibrav instead

     Parallelization info
     --------------------
     sticks:   dense  smooth     PW     G-vecs:    dense   smooth      PW
     Min         423     249     81                15453     7041    1297
     Max         424     250     82                15460     7048    1300
     Sum         847     499    163                30913    14089    2597



     bravais-lattice index     =            0
     lattice parameter (alat)  =       6.9145  a.u.
     unit-cell volume          =     443.3266 (a.u.)^3
     number of atoms/cell      =            2
     number of atomic types    =            1
     number of electrons       =        22.00
     number of Kohn-Sham states=           15
     kinetic-energy cutoff     =      38.0000  Ry
     charge density cutoff     =     257.0000  Ry
     convergence threshold     =      1.0E-06
     mixing beta               =       0.7000
     number of iterations used =            8  plain     mixing
     Exchange-correlation      = SLA PW PBX PBC ( 1  4  3  4 0 0)
     nstep                     =           50


     celldm(1)=   6.914489  celldm(2)=   0.000000  celldm(3)=   0.000000
     celldm(4)=   0.000000  celldm(5)=   0.000000  celldm(6)=   0.000000

     crystal axes: (cart. coord. in units of alat)
               a(1) = (   1.000000   0.000000   0.000000 )  
               a(2) = (  -0.500000   0.866025   0.000000 )  
               a(3) = (   0.000000   0.000000   1.548506 )  

     reciprocal axes: (cart. coord. in units 2 pi/alat)
               b(1) = (  1.000000  0.577350 -0.000000 )  
               b(2) = (  0.000000  1.154701  0.000000 )  
               b(3) = (  0.000000 -0.000000  0.645784 )  


     PseudoPot. # 1 for Y  read from file:
     ./potentials/Y.pbe-spn-kjpaw_psl.1.0.0.UPF
     MD5 check sum: d52e8d8ffa9ef5a9f13bb13aaba2e897
     Pseudo is Projector augmented-wave + core cor, Zval = 11.0
     Generated using "atomic" code by A. Dal Corso v.6.2.2
     Shape of augmentation charge: PSQ
     Using radial grid of 1223 points,  6 beta functions with: 
                l(1) =   0
                l(2) =   0
                l(3) =   1
                l(4) =   1
                l(5) =   2
                l(6) =   2
     Q(r) pseudized with 0 coefficients 


     atomic species   valence    mass     pseudopotential
        Y             11.00    88.90500     Y ( 1.00)

     Starting magnetic structure 
     atomic species   magnetization
        Y            1.000

     24 Sym. Ops., with inversion, found (12 have fractional translation)



   Cartesian axes

     site n.     atom                  positions (alat units)
         1           Y   tau(   1) = (   0.5000000   0.2886751   1.1613796  )
         2           Y   tau(   2) = (  -0.0000000   0.5773503   0.3871265  )

     number of k points=    90  Methfessel-Paxton smearing, width (Ry)=  0.0200
                       cart. coord. in units 2pi/alat
        k(    1) = (   0.0500000   0.0866025   0.0538153), wk =   0.0066667
        k(    2) = (   0.0500000   0.0866025   0.1614459), wk =   0.0066667
        k(    3) = (   0.0500000   0.0866025   0.2690765), wk =   0.0066667
        k(    4) = (   0.0500000   0.2020726   0.0538153), wk =   0.0133333
        k(    5) = (   0.0500000   0.2020726   0.1614459), wk =   0.0133333
        k(    6) = (   0.0500000   0.2020726   0.2690765), wk =   0.0133333
        k(    7) = (   0.0500000   0.3175426   0.0538153), wk =   0.0133333
        k(    8) = (   0.0500000   0.3175426   0.1614459), wk =   0.0133333
        k(    9) = (   0.0500000   0.3175426   0.2690765), wk =   0.0133333
        k(   10) = (   0.0500000   0.4330127   0.0538153), wk =   0.0133333
        k(   11) = (   0.0500000   0.4330127   0.1614459), wk =   0.0133333
        k(   12) = (   0.0500000   0.4330127   0.2690765), wk =   0.0133333
        k(   13) = (   0.0500000   0.5484828   0.0538153), wk =   0.0133333
        k(   14) = (   0.0500000   0.5484828   0.1614459), wk =   0.0133333
        k(   15) = (   0.0500000   0.5484828   0.2690765), wk =   0.0133333
        k(   16) = (   0.0500000  -0.4907477   0.0538153), wk =   0.0133333
        k(   17) = (   0.0500000  -0.4907477   0.1614459), wk =   0.0133333
        k(   18) = (   0.0500000  -0.4907477   0.2690765), wk =   0.0133333
        k(   19) = (   0.0500000  -0.3752777   0.0538153), wk =   0.0133333
        k(   20) = (   0.0500000  -0.3752777   0.1614459), wk =   0.0133333
        k(   21) = (   0.0500000  -0.3752777   0.2690765), wk =   0.0133333
        k(   22) = (   0.0500000  -0.2598076   0.0538153), wk =   0.0133333
        k(   23) = (   0.0500000  -0.2598076   0.1614459), wk =   0.0133333
        k(   24) = (   0.0500000  -0.2598076   0.2690765), wk =   0.0133333
        k(   25) = (   0.0500000  -0.1443376   0.0538153), wk =   0.0133333
        k(   26) = (   0.0500000  -0.1443376   0.1614459), wk =   0.0133333
        k(   27) = (   0.0500000  -0.1443376   0.2690765), wk =   0.0133333
        k(   28) = (   0.0500000  -0.0288675   0.0538153), wk =   0.0066667
        k(   29) = (   0.0500000  -0.0288675   0.1614459), wk =   0.0066667
        k(   30) = (   0.0500000  -0.0288675   0.2690765), wk =   0.0066667
        k(   31) = (   0.1500000   0.2598076   0.0538153), wk =   0.0066667
        k(   32) = (   0.1500000   0.2598076   0.1614459), wk =   0.0066667
        k(   33) = (   0.1500000   0.2598076   0.2690765), wk =   0.0066667
        k(   34) = (   0.1500000   0.3752777   0.0538153), wk =   0.0133333
        k(   35) = (   0.1500000   0.3752777   0.1614459), wk =   0.0133333
        k(   36) = (   0.1500000   0.3752777   0.2690765), wk =   0.0133333
        k(   37) = (   0.1500000   0.4907477   0.0538153), wk =   0.0133333
        k(   38) = (   0.1500000   0.4907477   0.1614459), wk =   0.0133333
        k(   39) = (   0.1500000   0.4907477   0.2690765), wk =   0.0133333
        k(   40) = (   0.1500000   0.6062178   0.0538153), wk =   0.0133333
        k(   41) = (   0.1500000   0.6062178   0.1614459), wk =   0.0133333
        k(   42) = (   0.1500000   0.6062178   0.2690765), wk =   0.0133333
        k(   43) = (   0.1500000  -0.4330127   0.0538153), wk =   0.0133333
        k(   44) = (   0.1500000  -0.4330127   0.1614459), wk =   0.0133333
        k(   45) = (   0.1500000  -0.4330127   0.2690765), wk =   0.0133333
        k(   46) = (   0.1500000  -0.3175426   0.0538153), wk =   0.0133333
        k(   47) = (   0.1500000  -0.3175426   0.1614459), wk =   0.0133333
        k(   48) = (   0.1500000  -0.3175426   0.2690765), wk =   0.0133333
        k(   49) = (   0.1500000  -0.2020726   0.0538153), wk =   0.0133333
        k(   50) = (   0.1500000  -0.2020726   0.1614459), wk =   0.0133333
        k(   51) = (   0.1500000  -0.2020726   0.2690765), wk =   0.0133333
        k(   52) = (   0.1500000  -0.0866025   0.0538153), wk =   0.0066667
        k(   53) = (   0.1500000  -0.0866025   0.1614459), wk =   0.0066667
        k(   54) = (   0.1500000  -0.0866025   0.2690765), wk =   0.0066667
        k(   55) = (   0.2500000   0.4330127   0.0538153), wk =   0.0066667
        k(   56) = (   0.2500000   0.4330127   0.1614459), wk =   0.0066667
        k(   57) = (   0.2500000   0.4330127   0.2690765), wk =   0.0066667
        k(   58) = (   0.2500000   0.5484828   0.0538153), wk =   0.0133333
        k(   59) = (   0.2500000   0.5484828   0.1614459), wk =   0.0133333
        k(   60) = (   0.2500000   0.5484828   0.2690765), wk =   0.0133333
        k(   61) = (   0.2500000   0.6639528   0.0538153), wk =   0.0133333
        k(   62) = (   0.2500000   0.6639528   0.1614459), wk =   0.0133333
        k(   63) = (   0.2500000   0.6639528   0.2690765), wk =   0.0133333
        k(   64) = (   0.2500000  -0.3752777   0.0538153), wk =   0.0133333
        k(   65) = (   0.2500000  -0.3752777   0.1614459), wk =   0.0133333
        k(   66) = (   0.2500000  -0.3752777   0.2690765), wk =   0.0133333
        k(   67) = (   0.2500000  -0.2598076   0.0538153), wk =   0.0133333
        k(   68) = (   0.2500000  -0.2598076   0.1614459), wk =   0.0133333
        k(   69) = (   0.2500000  -0.2598076   0.2690765), wk =   0.0133333
        k(   70) = (   0.2500000  -0.1443376   0.0538153), wk =   0.0066667
        k(   71) = (   0.2500000  -0.1443376   0.1614459), wk =   0.0066667
        k(   72) = (   0.2500000  -0.1443376   0.2690765), wk =   0.0066667
        k(   73) = (   0.3500000   0.6062178   0.0538153), wk =   0.0066667
        k(   74) = (   0.3500000   0.6062178   0.1614459), wk =   0.0066667
        k(   75) = (   0.3500000   0.6062178   0.2690765), wk =   0.0066667
        k(   76) = (   0.3500000   0.7216878   0.0538153), wk =   0.0133333
        k(   77) = (   0.3500000   0.7216878   0.1614459), wk =   0.0133333
        k(   78) = (   0.3500000   0.7216878   0.2690765), wk =   0.0133333
        k(   79) = (   0.3500000  -0.3175426   0.0538153), wk =   0.0133333
        k(   80) = (   0.3500000  -0.3175426   0.1614459), wk =   0.0133333
        k(   81) = (   0.3500000  -0.3175426   0.2690765), wk =   0.0133333
        k(   82) = (   0.3500000  -0.2020726   0.0538153), wk =   0.0066667
        k(   83) = (   0.3500000  -0.2020726   0.1614459), wk =   0.0066667
        k(   84) = (   0.3500000  -0.2020726   0.2690765), wk =   0.0066667
        k(   85) = (   0.4500000   0.7794229   0.0538153), wk =   0.0066667
        k(   86) = (   0.4500000   0.7794229   0.1614459), wk =   0.0066667
        k(   87) = (   0.4500000   0.7794229   0.2690765), wk =   0.0066667
        k(   88) = (   0.4500000  -0.2598076   0.0538153), wk =   0.0066667
        k(   89) = (   0.4500000  -0.2598076   0.1614459), wk =   0.0066667
        k(   90) = (   0.4500000  -0.2598076   0.2690765), wk =   0.0066667

     Dense  grid:    30913 G-vectors     FFT dimensions: (  36,  36,  60)

     Smooth grid:    14089 G-vectors     FFT dimensions: (  27,  27,  48)

     Estimated max dynamical RAM per process >     102.65 MB

     Estimated total dynamical RAM >     205.30 MB
     Generating pointlists ...
     new r_m :   0.3984 (alat units)  2.7547 (a.u.) for type    1

     Check: negative core charge=   -0.000004

     Initial potential from superposition of free atoms

     starting charge   21.99183, renormalised to   22.00000

     negative rho (up, down):  0.000E+00 3.957E-01
     Starting wfcs are   26 randomized atomic wfcs
     Checking if some PAW data can be deallocated... 

     total cpu time spent up to now is       10.2 secs

     Self-consistent Calculation

     iteration #  1     ecut=    38.00 Ry     beta= 0.70
     Davidson diagonalization with overlap
     ethr =  1.00E-02,  avg # of iterations =  2.0

     total cpu time spent up to now is       22.1 secs

     total energy              =    -564.65109077 Ry
     Harris-Foulkes estimate   =    -561.86107629 Ry
     estimated scf accuracy    <       1.30915415 Ry

     total magnetization       =     5.85 Bohr mag/cell
     absolute magnetization    =     5.85 Bohr mag/cell

     iteration #  2     ecut=    38.00 Ry     beta= 0.70
     Davidson diagonalization with overlap
     ethr =  5.95E-03,  avg # of iterations =  1.6

     total cpu time spent up to now is       33.3 secs

     total energy              =    -565.09792397 Ry
     Harris-Foulkes estimate   =    -564.85860204 Ry
     estimated scf accuracy    <       0.23518517 Ry

     total magnetization       =     3.38 Bohr mag/cell
     absolute magnetization    =     3.38 Bohr mag/cell

     iteration #  3     ecut=    38.00 Ry     beta= 0.70
     Davidson diagonalization with overlap
     ethr =  1.07E-03,  avg # of iterations =  2.2

     total cpu time spent up to now is       47.6 secs

     total energy              =    -565.18441526 Ry
     Harris-Foulkes estimate   =    -565.15490274 Ry
     estimated scf accuracy    <       0.01463780 Ry

     total magnetization       =     2.03 Bohr mag/cell
     absolute magnetization    =     2.03 Bohr mag/cell

     iteration #  4     ecut=    38.00 Ry     beta= 0.70
     Davidson diagonalization with overlap
     ethr =  6.65E-05,  avg # of iterations =  2.0

     total cpu time spent up to now is       60.3 secs

     total energy              =    -565.19730338 Ry
     Harris-Foulkes estimate   =    -565.19296759 Ry
     estimated scf accuracy    <       0.00112846 Ry

     total magnetization       =     1.44 Bohr mag/cell
     absolute magnetization    =     1.44 Bohr mag/cell

     iteration #  5     ecut=    38.00 Ry     beta= 0.70
     Davidson diagonalization with overlap
     ethr =  5.13E-06,  avg # of iterations =  3.0

     total cpu time spent up to now is       76.5 secs

     total energy              =    -565.20022190 Ry
     Harris-Foulkes estimate   =    -565.19947682 Ry
     estimated scf accuracy    <       0.00013669 Ry

     total magnetization       =     1.12 Bohr mag/cell
     absolute magnetization    =     1.12 Bohr mag/cell

     iteration #  6     ecut=    38.00 Ry     beta= 0.70
     Davidson diagonalization with overlap
     ethr =  6.21E-07,  avg # of iterations =  3.1

     total cpu time spent up to now is       91.8 secs

     total energy              =    -565.20083965 Ry
     Harris-Foulkes estimate   =    -565.20063964 Ry
     estimated scf accuracy    <       0.00003068 Ry

     total magnetization       =     0.95 Bohr mag/cell
     absolute magnetization    =     0.96 Bohr mag/cell

     iteration #  7     ecut=    38.00 Ry     beta= 0.70
     Davidson diagonalization with overlap
     ethr =  1.39E-07,  avg # of iterations =  3.8

     total cpu time spent up to now is      109.1 secs

     total energy              =    -565.20129281 Ry
     Harris-Foulkes estimate   =    -565.20123203 Ry
     estimated scf accuracy    <       0.00001002 Ry

     total magnetization       =     0.78 Bohr mag/cell
     absolute magnetization    =     0.78 Bohr mag/cell

     iteration #  8     ecut=    38.00 Ry     beta= 0.70
     Davidson diagonalization with overlap
     ethr =  4.56E-08,  avg # of iterations =  4.0

     total cpu time spent up to now is      126.8 secs

     total energy              =    -565.20104046 Ry
     Harris-Foulkes estimate   =    -565.20150793 Ry
     estimated scf accuracy    <       0.00000557 Ry

     total magnetization       =     0.65 Bohr mag/cell
     absolute magnetization    =     0.66 Bohr mag/cell

     iteration #  9     ecut=    38.00 Ry     beta= 0.70
     Davidson diagonalization with overlap
     ethr =  2.53E-08,  avg # of iterations =  5.1

     total cpu time spent up to now is      147.9 secs

     total energy              =    -565.20155780 Ry
     Harris-Foulkes estimate   =    -565.20184245 Ry
     estimated scf accuracy    <       0.00000192 Ry

     total magnetization       =     0.41 Bohr mag/cell
     absolute magnetization    =     0.41 Bohr mag/cell

     iteration # 10     ecut=    38.00 Ry     beta= 0.70
     Davidson diagonalization with overlap
     ethr =  8.73E-09,  avg # of iterations =  5.5

     Magnetic moment per site:
     atom:    1    charge:    9.5038    magn:    0.0648    constr:    0.0000
     atom:    2    charge:    9.5038    magn:    0.0648    constr:    0.0000

     total cpu time spent up to now is      170.2 secs

     End of self-consistent calculation

     Number of k-points >= 100: set verbosity='high' to print the bands.

     the Fermi energy is     9.5089 ev

!    total energy              =    -565.20196836 Ry
     Harris-Foulkes estimate   =    -565.20196399 Ry
     estimated scf accuracy    <       0.00000059 Ry

     total all-electron energy =    -13541.448516 Ry

     The total energy is the sum of the following terms:

     one-electron contribution =     -38.54845151 Ry
     hartree contribution      =      26.39795845 Ry
     xc contribution           =     -35.67634020 Ry
     ewald contribution        =    -115.44312829 Ry
     one-center paw contrib.   =    -401.93100351 Ry
     smearing contrib. (-TS)   =      -0.00100330 Ry

     total magnetization       =     0.23 Bohr mag/cell
     absolute magnetization    =     0.23 Bohr mag/cell

     convergence has been achieved in  10 iterations

     Forces acting on atoms (cartesian axes, Ry/au):

     atom    1 type  1   force =     0.00000000    0.00000000    0.00000000
     atom    2 type  1   force =     0.00000000    0.00000000    0.00000000

     Total force =     0.000000     Total SCF correction =     0.000000


     Computing stress (Cartesian axis) and pressure

          total   stress  (Ry/bohr**3)                   (kbar)     P=   -0.30
  -0.00001043  -0.00000000   0.00000000         -1.53     -0.00      0.00
  -0.00000000  -0.00001043   0.00000000         -0.00     -1.53      0.00
   0.00000000   0.00000000   0.00001465          0.00      0.00      2.16


     BFGS Geometry Optimization

     number of scf cycles    =   1
     number of bfgs steps    =   0

     enthalpy new            =    -565.2019683641 Ry

     new trust radius        =       0.0015424582 bohr
     new conv_thr            =       0.0000010000 Ry

     new unit-cell volume =    443.25787 a.u.^3 (    65.68404 Ang^3 )
     density =      4.49516 g/cm^3

CELL_PARAMETERS (alat=  6.91448902)
   0.999739351  -0.000000000   0.000000000
  -0.499869676   0.865799675   0.000000000
   0.000000000   0.000000000   1.549073334

ATOMIC_POSITIONS (crystal)
Y        0.666666667   0.333333333   0.750000000
Y        0.333333333   0.666666667   0.250000000



     Writing output data file pw.save/
     NEW-OLD atomic charge density approx. for the potential

     Check: negative core charge=   -0.000004
     extrapolated charge   21.99659, renormalised to   22.00000

     total cpu time spent up to now is      179.5 secs

     Self-consistent Calculation

     iteration #  1     ecut=    38.00 Ry     beta= 0.70
     Davidson diagonalization with overlap
     ethr =  1.00E-06,  avg # of iterations =  2.0

     Threshold (ethr) on eigenvalues was too large:
     Diagonalizing with lowered threshold

     Davidson diagonalization with overlap
     ethr =  1.75E-09,  avg # of iterations =  2.8

     Magnetic moment per site:
     atom:    1    charge:    9.5040    magn:    0.0606    constr:    0.0000
     atom:    2    charge:    9.5040    magn:    0.0606    constr:    0.0000

     total cpu time spent up to now is      205.9 secs

     End of self-consistent calculation

     Number of k-points >= 100: set verbosity='high' to print the bands.

     the Fermi energy is     9.5111 ev

!    total energy              =    -565.20197867 Ry
     Harris-Foulkes estimate   =    -565.20529414 Ry
     estimated scf accuracy    <       0.00000042 Ry

     total all-electron energy =    -13541.448526 Ry

     The total energy is the sum of the following terms:

     one-electron contribution =     -38.54048039 Ry
     hartree contribution      =      26.39808897 Ry
     xc contribution           =     -35.67723144 Ry
     ewald contribution        =    -115.45010487 Ry
     one-center paw contrib.   =    -401.93123397 Ry
     smearing contrib. (-TS)   =      -0.00101697 Ry

     total magnetization       =     0.21 Bohr mag/cell
     absolute magnetization    =     0.21 Bohr mag/cell

     convergence has been achieved in   1 iterations

     Forces acting on atoms (cartesian axes, Ry/au):

     atom    1 type  1   force =     0.00000000    0.00000000    0.00000000
     atom    2 type  1   force =     0.00000000    0.00000000    0.00000000

     Total force =     0.000000     Total SCF correction =     0.000000


     Computing stress (Cartesian axis) and pressure

          total   stress  (Ry/bohr**3)                   (kbar)     P=    0.27
  -0.00000419  -0.00000000   0.00000000         -0.62     -0.00      0.00
  -0.00000000  -0.00000419  -0.00000000         -0.00     -0.62     -0.00
   0.00000000  -0.00000000   0.00001391          0.00     -0.00      2.05


     number of scf cycles    =   2
     number of bfgs steps    =   1

     enthalpy old            =    -565.2019683641 Ry
     enthalpy new            =    -565.2019786694 Ry

     CASE: enthalpy_new < enthalpy_old

     new trust radius        =       0.0023126607 bohr
     new conv_thr            =       0.0000000100 Ry

     new unit-cell volume =    443.31546 a.u.^3 (    65.69257 Ang^3 )
     density =      4.49458 g/cm^3

CELL_PARAMETERS (alat=  6.91448902)
   0.999529846  -0.000000000   0.000000000
  -0.499764923   0.865618238   0.000000000
   0.000000000   0.000000000   1.549924131

ATOMIC_POSITIONS (crystal)
Y        0.666666667   0.333333333   0.750000000
Y        0.333333333   0.666666667   0.250000000



     Writing output data file pw.save/
     NEW-OLD atomic charge density approx. for the potential

     Check: negative core charge=   -0.000004
     extrapolated charge   22.00286, renormalised to   22.00000

     total cpu time spent up to now is      215.3 secs

     Self-consistent Calculation

     iteration #  1     ecut=    38.00 Ry     beta= 0.70
     Davidson diagonalization with overlap
     ethr =  1.00E-06,  avg # of iterations =  2.0

     Threshold (ethr) on eigenvalues was too large:
     Diagonalizing with lowered threshold

     Davidson diagonalization with overlap
     ethr =  8.12E-09,  avg # of iterations =  2.2

     total cpu time spent up to now is      241.8 secs

     total energy              =    -565.20198629 Ry
     Harris-Foulkes estimate   =    -565.19920887 Ry
     estimated scf accuracy    <       0.00000197 Ry

     total magnetization       =     0.20 Bohr mag/cell
     absolute magnetization    =     0.20 Bohr mag/cell

     iteration #  2     ecut=    38.00 Ry     beta= 0.70
     Davidson diagonalization with overlap
     ethr =  8.97E-09,  avg # of iterations =  2.9

     total cpu time spent up to now is      257.9 secs

     total energy              =    -565.20199002 Ry
     Harris-Foulkes estimate   =    -565.20198894 Ry
     estimated scf accuracy    <       0.00000076 Ry

     total magnetization       =     0.19 Bohr mag/cell
     absolute magnetization    =     0.19 Bohr mag/cell

     iteration #  3     ecut=    38.00 Ry     beta= 0.70
     Davidson diagonalization with overlap
     ethr =  3.47E-09,  avg # of iterations =  2.3

     total cpu time spent up to now is      271.4 secs

     total energy              =    -565.20198246 Ry
     Harris-Foulkes estimate   =    -565.20199047 Ry
     estimated scf accuracy    <       0.00000022 Ry

     total magnetization       =     0.18 Bohr mag/cell
     absolute magnetization    =     0.18 Bohr mag/cell

     iteration #  4     ecut=    38.00 Ry     beta= 0.70
     Davidson diagonalization with overlap
     ethr =  9.80E-10,  avg # of iterations =  5.0

     total cpu time spent up to now is      292.0 secs

     total energy              =    -565.20191339 Ry
     Harris-Foulkes estimate   =    -565.20200164 Ry
     estimated scf accuracy    <       0.00000040 Ry

     total magnetization       =     0.14 Bohr mag/cell
     absolute magnetization    =     0.14 Bohr mag/cell

     iteration #  5     ecut=    38.00 Ry     beta= 0.70
     Davidson diagonalization with overlap
     ethr =  9.80E-10,  avg # of iterations =  5.9

     total cpu time spent up to now is      315.1 secs

     total energy              =    -565.20201055 Ry
     Harris-Foulkes estimate   =    -565.20201599 Ry
     estimated scf accuracy    <       0.00000003 Ry

     total magnetization       =     0.05 Bohr mag/cell
     absolute magnetization    =     0.05 Bohr mag/cell

     iteration #  6     ecut=    38.00 Ry     beta= 0.70
     Davidson diagonalization with overlap
     ethr =  1.39E-10,  avg # of iterations =  5.5

     total cpu time spent up to now is      337.0 secs

     total energy              =    -565.20201152 Ry
     Harris-Foulkes estimate   =    -565.20201740 Ry
     estimated scf accuracy    <       0.00000005 Ry

     total magnetization       =     0.02 Bohr mag/cell
     absolute magnetization    =     0.02 Bohr mag/cell

     iteration #  7     ecut=    38.00 Ry     beta= 0.70
     Davidson diagonalization with overlap
     ethr =  1.39E-10,  avg # of iterations =  5.3

     Magnetic moment per site:
     atom:    1    charge:    9.5037    magn:   -0.0002    constr:    0.0000
     atom:    2    charge:    9.5037    magn:   -0.0002    constr:    0.0000

     total cpu time spent up to now is      358.5 secs

     End of self-consistent calculation

     Number of k-points >= 100: set verbosity='high' to print the bands.

     the Fermi energy is     9.5098 ev

!    total energy              =    -565.20201785 Ry
     Harris-Foulkes estimate   =    -565.20201785 Ry
     estimated scf accuracy    <          2.3E-09 Ry

     total all-electron energy =    -13541.448565 Ry

     The total energy is the sum of the following terms:

     one-electron contribution =     -38.54295300 Ry
     hartree contribution      =      26.39450957 Ry
     xc contribution           =     -35.67536788 Ry
     ewald contribution        =    -115.44630921 Ry
     one-center paw contrib.   =    -401.93081277 Ry
     smearing contrib. (-TS)   =      -0.00108456 Ry

     total magnetization       =    -0.00 Bohr mag/cell
     absolute magnetization    =     0.00 Bohr mag/cell

     convergence has been achieved in   7 iterations

     Forces acting on atoms (cartesian axes, Ry/au):

     atom    1 type  1   force =     0.00000000    0.00000000    0.00000000
     atom    2 type  1   force =     0.00000000    0.00000000    0.00000000

     Total force =     0.000000     Total SCF correction =     0.000000


     Computing stress (Cartesian axis) and pressure

          total   stress  (Ry/bohr**3)                   (kbar)     P=   -0.76
  -0.00000943   0.00000000  -0.00000000         -1.39      0.00     -0.00
   0.00000000  -0.00000943   0.00000000          0.00     -1.39      0.00
  -0.00000000   0.00000000   0.00000337         -0.00      0.00      0.50


     number of scf cycles    =   3
     number of bfgs steps    =   2

     enthalpy old            =    -565.2019786694 Ry
     enthalpy new            =    -565.2020178495 Ry

     CASE: enthalpy_new < enthalpy_old

     new trust radius        =       0.0034673121 bohr
     new conv_thr            =       0.0000000100 Ry

     new unit-cell volume =    443.19874 a.u.^3 (    65.67528 Ang^3 )
     density =      4.49576 g/cm^3

CELL_PARAMETERS (alat=  6.91448902)
   0.998987061   0.000000000  -0.000000000
  -0.499493531   0.865148173   0.000000000
  -0.000000000   0.000000000   1.551200325

ATOMIC_POSITIONS (crystal)
Y        0.666666667   0.333333333   0.750000000
Y        0.333333333   0.666666667   0.250000000



     Writing output data file pw.save/
     NEW-OLD atomic charge density approx. for the potential

     Check: negative core charge=   -0.000004
     extrapolated charge   21.99421, renormalised to   22.00000

     total cpu time spent up to now is      367.8 secs

     Self-consistent Calculation

     iteration #  1     ecut=    38.00 Ry     beta= 0.70
     Davidson diagonalization with overlap
     ethr =  1.00E-06,  avg # of iterations =  2.0

     Threshold (ethr) on eigenvalues was too large:
     Diagonalizing with lowered threshold

     Davidson diagonalization with overlap
     ethr =  4.60E-09,  avg # of iterations =  2.6

     total cpu time spent up to now is      394.2 secs

     total energy              =    -565.20202040 Ry
     Harris-Foulkes estimate   =    -565.20765291 Ry
     estimated scf accuracy    <       0.00000121 Ry

     total magnetization       =    -0.00 Bohr mag/cell
     absolute magnetization    =     0.00 Bohr mag/cell

     iteration #  2     ecut=    38.00 Ry     beta= 0.70
     Davidson diagonalization with overlap
     ethr =  5.48E-09,  avg # of iterations =  3.0

     total cpu time spent up to now is      410.6 secs

     total energy              =    -565.20202259 Ry
     Harris-Foulkes estimate   =    -565.20202335 Ry
     estimated scf accuracy    <       0.00000148 Ry

     total magnetization       =    -0.00 Bohr mag/cell
     absolute magnetization    =     0.00 Bohr mag/cell

     iteration #  3     ecut=    38.00 Ry     beta= 0.70
     Davidson diagonalization with overlap
     ethr =  5.48E-09,  avg # of iterations =  1.9

     total cpu time spent up to now is      422.8 secs

     total energy              =    -565.20202248 Ry
     Harris-Foulkes estimate   =    -565.20202270 Ry
     estimated scf accuracy    <       0.00000028 Ry

     total magnetization       =    -0.00 Bohr mag/cell
     absolute magnetization    =     0.00 Bohr mag/cell

     iteration #  4     ecut=    38.00 Ry     beta= 0.70
     Davidson diagonalization with overlap
     ethr =  1.27E-09,  avg # of iterations =  2.0

     Magnetic moment per site:
     atom:    1    charge:    9.5036    magn:   -0.0002    constr:    0.0000
     atom:    2    charge:    9.5036    magn:   -0.0002    constr:    0.0000

     total cpu time spent up to now is      437.3 secs

     End of self-consistent calculation

     Number of k-points >= 100: set verbosity='high' to print the bands.

     the Fermi energy is     9.5134 ev

!    total energy              =    -565.20202254 Ry
     Harris-Foulkes estimate   =    -565.20202254 Ry
     estimated scf accuracy    <          5.2E-10 Ry

     total all-electron energy =    -13541.448570 Ry

     The total energy is the sum of the following terms:

     one-electron contribution =     -38.52443910 Ry
     hartree contribution      =      26.38861924 Ry
     xc contribution           =     -35.67569615 Ry
     ewald contribution        =    -115.45857228 Ry
     one-center paw contrib.   =    -401.93083993 Ry
     smearing contrib. (-TS)   =      -0.00109432 Ry

     total magnetization       =    -0.00 Bohr mag/cell
     absolute magnetization    =     0.00 Bohr mag/cell

     convergence has been achieved in   4 iterations

     Forces acting on atoms (cartesian axes, Ry/au):

     atom    1 type  1   force =     0.00000000    0.00000000    0.00000000
     atom    2 type  1   force =     0.00000000    0.00000000    0.00000000

     Total force =     0.000000     Total SCF correction =     0.000000


     Computing stress (Cartesian axis) and pressure

          total   stress  (Ry/bohr**3)                   (kbar)     P=   -0.61
  -0.00000668   0.00000000  -0.00000000         -0.98      0.00     -0.00
   0.00000000  -0.00000668   0.00000000          0.00     -0.98      0.00
  -0.00000000   0.00000000   0.00000089         -0.00      0.00      0.13


     number of scf cycles    =   4
     number of bfgs steps    =   3

     enthalpy old            =    -565.2020178495 Ry
     enthalpy new            =    -565.2020225438 Ry

     CASE: enthalpy_new < enthalpy_old

     new trust radius        =       0.0051960050 bohr
     new conv_thr            =       0.0000000100 Ry

     new unit-cell volume =    442.98158 a.u.^3 (    65.64310 Ang^3 )
     density =      4.49797 g/cm^3

CELL_PARAMETERS (alat=  6.91448902)
   0.998126595   0.000000000  -0.000000000
  -0.499063297   0.864402987   0.000000000
  -0.000000000   0.000000000   1.553114617

ATOMIC_POSITIONS (crystal)
Y        0.666666667   0.333333333   0.750000000
Y        0.333333333   0.666666667   0.250000000



     Writing output data file pw.save/
     NEW-OLD atomic charge density approx. for the potential

     Check: negative core charge=   -0.000004
     extrapolated charge   21.98922, renormalised to   22.00000

     total cpu time spent up to now is      446.6 secs

     Self-consistent Calculation

     iteration #  1     ecut=    38.00 Ry     beta= 0.70
     Davidson diagonalization with overlap
     ethr =  1.00E-06,  avg # of iterations =  2.0

     Threshold (ethr) on eigenvalues was too large:
     Diagonalizing with lowered threshold

     Davidson diagonalization with overlap
     ethr =  1.52E-08,  avg # of iterations =  2.5

     total cpu time spent up to now is      473.0 secs

     total energy              =    -565.20201818 Ry
     Harris-Foulkes estimate   =    -565.21249520 Ry
     estimated scf accuracy    <       0.00000391 Ry

     total magnetization       =    -0.00 Bohr mag/cell
     absolute magnetization    =     0.00 Bohr mag/cell

     iteration #  2     ecut=    38.00 Ry     beta= 0.70
     Davidson diagonalization with overlap
     ethr =  1.78E-08,  avg # of iterations =  3.0

     total cpu time spent up to now is      489.3 secs

     total energy              =    -565.20202561 Ry
     Harris-Foulkes estimate   =    -565.20202815 Ry
     estimated scf accuracy    <       0.00000506 Ry

     total magnetization       =    -0.00 Bohr mag/cell
     absolute magnetization    =     0.00 Bohr mag/cell

     iteration #  3     ecut=    38.00 Ry     beta= 0.70
     Davidson diagonalization with overlap
     ethr =  1.78E-08,  avg # of iterations =  1.9

     total cpu time spent up to now is      501.5 secs

     total energy              =    -565.20202520 Ry
     Harris-Foulkes estimate   =    -565.20202596 Ry
     estimated scf accuracy    <       0.00000098 Ry

     total magnetization       =    -0.00 Bohr mag/cell
     absolute magnetization    =     0.00 Bohr mag/cell

     iteration #  4     ecut=    38.00 Ry     beta= 0.70
     Davidson diagonalization with overlap
     ethr =  4.47E-09,  avg # of iterations =  2.0

     Magnetic moment per site:
     atom:    1    charge:    9.5034    magn:   -0.0002    constr:    0.0000
     atom:    2    charge:    9.5034    magn:   -0.0002    constr:    0.0000

     total cpu time spent up to now is      516.0 secs

     End of self-consistent calculation

     Number of k-points >= 100: set verbosity='high' to print the bands.

     the Fermi energy is     9.5199 ev

!    total energy              =    -565.20202543 Ry
     Harris-Foulkes estimate   =    -565.20202543 Ry
     estimated scf accuracy    <          2.8E-09 Ry

     total all-electron energy =    -13541.448573 Ry

     The total energy is the sum of the following terms:

     one-electron contribution =     -38.49112894 Ry
     hartree contribution      =      26.37788768 Ry
     xc contribution           =     -35.67622309 Ry
     ewald contribution        =    -115.48060517 Ry
     one-center paw contrib.   =    -401.93084663 Ry
     smearing contrib. (-TS)   =      -0.00110927 Ry

     total magnetization       =    -0.00 Bohr mag/cell
     absolute magnetization    =     0.00 Bohr mag/cell

     convergence has been achieved in   4 iterations

     Forces acting on atoms (cartesian axes, Ry/au):

     atom    1 type  1   force =    -0.00000000   -0.00000000    0.00000000
     atom    2 type  1   force =     0.00000000    0.00000000   -0.00000000

     Total force =     0.000000     Total SCF correction =     0.000000


     Computing stress (Cartesian axis) and pressure

          total   stress  (Ry/bohr**3)                   (kbar)     P=   -0.43
  -0.00000270  -0.00000000   0.00000000         -0.40     -0.00      0.00
   0.00000000  -0.00000270  -0.00000000          0.00     -0.40     -0.00
   0.00000000  -0.00000000  -0.00000344          0.00     -0.00     -0.51


     number of scf cycles    =   5
     number of bfgs steps    =   4

     enthalpy old            =    -565.2020225438 Ry
     enthalpy new            =    -565.2020254272 Ry

     CASE: enthalpy_new < enthalpy_old

     new trust radius        =       0.0002326764 bohr
     new conv_thr            =       0.0000000100 Ry

     new unit-cell volume =    442.93119 a.u.^3 (    65.63563 Ang^3 )
     density =      4.49848 g/cm^3

CELL_PARAMETERS (alat=  6.91448902)
   0.998071423   0.000000000   0.000000000
  -0.499035712   0.864355207   0.000000000
   0.000000000   0.000000000   1.553109625

ATOMIC_POSITIONS (crystal)
Y        0.666666667   0.333333333   0.750000000
Y        0.333333333   0.666666667   0.250000000



     Writing output data file pw.save/
     NEW-OLD atomic charge density approx. for the potential

     Check: negative core charge=   -0.000004
     extrapolated charge   21.99750, renormalised to   22.00000

     total cpu time spent up to now is      525.3 secs

     Self-consistent Calculation

     iteration #  1     ecut=    38.00 Ry     beta= 0.70
     Davidson diagonalization with overlap
     ethr =  1.00E-06,  avg # of iterations =  2.0

     Threshold (ethr) on eigenvalues was too large:
     Diagonalizing with lowered threshold

     Davidson diagonalization with overlap
     ethr =  8.80E-10,  avg # of iterations =  2.6

     total cpu time spent up to now is      551.1 secs

     total energy              =    -565.20202516 Ry
     Harris-Foulkes estimate   =    -565.20445415 Ry
     estimated scf accuracy    <       0.00000022 Ry

     total magnetization       =    -0.00 Bohr mag/cell
     absolute magnetization    =     0.00 Bohr mag/cell

     iteration #  2     ecut=    38.00 Ry     beta= 0.70
     Davidson diagonalization with overlap
     ethr =  1.02E-09,  avg # of iterations =  3.0

     total cpu time spent up to now is      567.3 secs

     total energy              =    -565.20202556 Ry
     Harris-Foulkes estimate   =    -565.20202571 Ry
     estimated scf accuracy    <       0.00000028 Ry

     total magnetization       =    -0.00 Bohr mag/cell
     absolute magnetization    =     0.00 Bohr mag/cell

     iteration #  3     ecut=    38.00 Ry     beta= 0.70
     Davidson diagonalization with overlap
     ethr =  1.02E-09,  avg # of iterations =  1.9

     total cpu time spent up to now is      579.6 secs

     total energy              =    -565.20202555 Ry
     Harris-Foulkes estimate   =    -565.20202558 Ry
     estimated scf accuracy    <       0.00000005 Ry

     total magnetization       =    -0.00 Bohr mag/cell
     absolute magnetization    =     0.00 Bohr mag/cell

     iteration #  4     ecut=    38.00 Ry     beta= 0.70
     Davidson diagonalization with overlap
     ethr =  2.36E-10,  avg # of iterations =  2.0

     Magnetic moment per site:
     atom:    1    charge:    9.5033    magn:   -0.0002    constr:    0.0000
     atom:    2    charge:    9.5033    magn:   -0.0002    constr:    0.0000

     total cpu time spent up to now is      593.5 secs

     End of self-consistent calculation

     Number of k-points >= 100: set verbosity='high' to print the bands.

     the Fermi energy is     9.5212 ev

!    total energy              =    -565.20202555 Ry
     Harris-Foulkes estimate   =    -565.20202555 Ry
     estimated scf accuracy    <          2.3E-09 Ry

     total all-electron energy =    -13541.448573 Ry

     The total energy is the sum of the following terms:

     one-electron contribution =     -38.48453281 Ry
     hartree contribution      =      26.37586743 Ry
     xc contribution           =     -35.67634678 Ry
     ewald contribution        =    -115.48506182 Ry
     one-center paw contrib.   =    -401.93084177 Ry
     smearing contrib. (-TS)   =      -0.00110980 Ry

     total magnetization       =    -0.00 Bohr mag/cell
     absolute magnetization    =     0.00 Bohr mag/cell

     convergence has been achieved in   4 iterations

     Forces acting on atoms (cartesian axes, Ry/au):

     atom    1 type  1   force =     0.00000000    0.00000000   -0.00000000
     atom    2 type  1   force =    -0.00000000   -0.00000000    0.00000000

     Total force =     0.000000     Total SCF correction =     0.000000


     Computing stress (Cartesian axis) and pressure

          total   stress  (Ry/bohr**3)                   (kbar)     P=   -0.41
  -0.00000250   0.00000000   0.00000000         -0.37      0.00      0.00
   0.00000000  -0.00000250   0.00000000          0.00     -0.37      0.00
  -0.00000000  -0.00000000  -0.00000340         -0.00     -0.00     -0.50


     number of scf cycles    =   6
     number of bfgs steps    =   5

     enthalpy old            =    -565.2020254272 Ry
     enthalpy new            =    -565.2020255505 Ry

     CASE: enthalpy_new < enthalpy_old


     WARNING: bfgs curvature condition failed, Theta= 0.862
     new trust radius        =       0.0002559436 bohr
     new conv_thr            =       0.0000000100 Ry

     new unit-cell volume =    442.86397 a.u.^3 (    65.62567 Ang^3 )
     density =      4.49916 g/cm^3

CELL_PARAMETERS (alat=  6.91448902)
   0.998010735   0.000000000  -0.000000000
  -0.499005367   0.864302649  -0.000000000
   0.000000000   0.000000000   1.553062786

ATOMIC_POSITIONS (crystal)
Y        0.666666667   0.333333333   0.750000000
Y        0.333333333   0.666666667   0.250000000



     Writing output data file pw.save/
     NEW-OLD atomic charge density approx. for the potential

     Check: negative core charge=   -0.000004
     extrapolated charge   21.99666, renormalised to   22.00000

     total cpu time spent up to now is      603.3 secs

     Self-consistent Calculation

     iteration #  1     ecut=    38.00 Ry     beta= 0.70
     Davidson diagonalization with overlap
     ethr =  1.00E-06,  avg # of iterations =  2.0

     Threshold (ethr) on eigenvalues was too large:
     Diagonalizing with lowered threshold

     Davidson diagonalization with overlap
     ethr =  1.69E-09,  avg # of iterations =  2.2

     total cpu time spent up to now is      628.6 secs

     total energy              =    -565.20202500 Ry
     Harris-Foulkes estimate   =    -565.20526483 Ry
     estimated scf accuracy    <       0.00000040 Ry

     total magnetization       =    -0.00 Bohr mag/cell
     absolute magnetization    =     0.00 Bohr mag/cell

     iteration #  2     ecut=    38.00 Ry     beta= 0.70
     Davidson diagonalization with overlap
     ethr =  1.81E-09,  avg # of iterations =  3.0

     total cpu time spent up to now is      644.9 secs

     total energy              =    -565.20202572 Ry
     Harris-Foulkes estimate   =    -565.20202597 Ry
     estimated scf accuracy    <       0.00000049 Ry

     total magnetization       =    -0.00 Bohr mag/cell
     absolute magnetization    =     0.00 Bohr mag/cell

     iteration #  3     ecut=    38.00 Ry     beta= 0.70
     Davidson diagonalization with overlap
     ethr =  1.81E-09,  avg # of iterations =  1.9

     total cpu time spent up to now is      657.2 secs

     total energy              =    -565.20202569 Ry
     Harris-Foulkes estimate   =    -565.20202575 Ry
     estimated scf accuracy    <       0.00000009 Ry

     total magnetization       =    -0.00 Bohr mag/cell
     absolute magnetization    =     0.00 Bohr mag/cell

     iteration #  4     ecut=    38.00 Ry     beta= 0.70
     Davidson diagonalization with overlap
     ethr =  4.18E-10,  avg # of iterations =  2.0

     Magnetic moment per site:
     atom:    1    charge:    9.5032    magn:   -0.0001    constr:    0.0000
     atom:    2    charge:    9.5032    magn:   -0.0001    constr:    0.0000

     total cpu time spent up to now is      671.1 secs

     End of self-consistent calculation

     Number of k-points >= 100: set verbosity='high' to print the bands.

     the Fermi energy is     9.5230 ev

!    total energy              =    -565.20202570 Ry
     Harris-Foulkes estimate   =    -565.20202570 Ry
     estimated scf accuracy    <          6.1E-09 Ry

     total all-electron energy =    -13541.448573 Ry

     The total energy is the sum of the following terms:

     one-electron contribution =     -38.47578893 Ry
     hartree contribution      =      26.37316276 Ry
     xc contribution           =     -35.67650417 Ry
     ewald contribution        =    -115.49094997 Ry
     one-center paw contrib.   =    -401.93083517 Ry
     smearing contrib. (-TS)   =      -0.00111022 Ry

     total magnetization       =    -0.00 Bohr mag/cell
     absolute magnetization    =     0.00 Bohr mag/cell

     convergence has been achieved in   4 iterations

     Forces acting on atoms (cartesian axes, Ry/au):

     atom    1 type  1   force =     0.00000000   -0.00000000    0.00000000
     atom    2 type  1   force =    -0.00000000    0.00000000   -0.00000000

     Total force =     0.000000     Total SCF correction =     0.000000


     Computing stress (Cartesian axis) and pressure

          total   stress  (Ry/bohr**3)                   (kbar)     P=   -0.38
  -0.00000222   0.00000000  -0.00000000         -0.33      0.00     -0.00
   0.00000000  -0.00000222  -0.00000000          0.00     -0.33     -0.00
  -0.00000000  -0.00000000  -0.00000320         -0.00     -0.00     -0.47


     bfgs converged in   7 scf cycles and   6 bfgs steps
     (criteria: energy <  1.0E-04 Ry, force <  1.0E-03Ry/Bohr, cell <  5.0E-01kbar)

     End of BFGS Geometry Optimization

     Final enthalpy =    -565.2020256958 Ry
Begin final coordinates
     new unit-cell volume =    442.86397 a.u.^3 (    65.62567 Ang^3 )
     density =      4.49916 g/cm^3

CELL_PARAMETERS (alat=  6.91448902)
   0.998010735   0.000000000  -0.000000000
  -0.499005367   0.864302649  -0.000000000
   0.000000000   0.000000000   1.553062786

ATOMIC_POSITIONS (crystal)
Y        0.666666667   0.333333333   0.750000000
Y        0.333333333   0.666666667   0.250000000
End final coordinates



     Writing output data file pw.save/

     A final scf calculation at the relaxed structure.
     The G-vectors are recalculated for the final unit cell
     Results may differ from those at the preceding step.

     Parallelization info
     --------------------
     sticks:   dense  smooth     PW     G-vecs:    dense   smooth      PW
     Min         423     249     81                15399     7037    1309
     Max         424     250     82                15406     7040    1312
     Sum         847     499    163                30805    14077    2621



     bravais-lattice index     =            0
     lattice parameter (alat)  =       6.9145  a.u.
     unit-cell volume          =     442.8640 (a.u.)^3
     number of atoms/cell      =            2
     number of atomic types    =            1
     number of electrons       =        22.00
     number of Kohn-Sham states=           15
     kinetic-energy cutoff     =      38.0000  Ry
     charge density cutoff     =     257.0000  Ry
     convergence threshold     =      1.0E-08
     mixing beta               =       0.7000
     number of iterations used =            8  plain     mixing
     Exchange-correlation      = SLA PW PBX PBC ( 1  4  3  4 0 0)

     celldm(1)=   6.914489  celldm(2)=   0.000000  celldm(3)=   0.000000
     celldm(4)=   0.000000  celldm(5)=   0.000000  celldm(6)=   0.000000

     crystal axes: (cart. coord. in units of alat)
               a(1) = (   0.998011   0.000000  -0.000000 )  
               a(2) = (  -0.499005   0.864303  -0.000000 )  
               a(3) = (   0.000000   0.000000   1.553063 )  

     reciprocal axes: (cart. coord. in units 2 pi/alat)
               b(1) = (  1.001993  0.578501 -0.000000 )  
               b(2) = ( -0.000000  1.157002 -0.000000 )  
               b(3) = (  0.000000  0.000000  0.643889 )  


     PseudoPot. # 1 for Y  read from file:
     ./potentials/Y.pbe-spn-kjpaw_psl.1.0.0.UPF
     MD5 check sum: d52e8d8ffa9ef5a9f13bb13aaba2e897
     Pseudo is Projector augmented-wave + core cor, Zval = 11.0
     Generated using "atomic" code by A. Dal Corso v.6.2.2
     Shape of augmentation charge: PSQ
     Using radial grid of 1223 points,  6 beta functions with: 
                l(1) =   0
                l(2) =   0
                l(3) =   1
                l(4) =   1
                l(5) =   2
                l(6) =   2
     Q(r) pseudized with 0 coefficients 


     atomic species   valence    mass     pseudopotential
        Y             11.00    88.90500     Y ( 1.00)

     Starting magnetic structure 
     atomic species   magnetization
        Y           -0.000

     24 Sym. Ops., with inversion, found (12 have fractional translation)



   Cartesian axes

     site n.     atom                  positions (alat units)
         1           Y   tau(   1) = (   0.4990054   0.2881009   1.1647971  )
         2           Y   tau(   2) = (  -0.0000000   0.5762018   0.3882657  )

     number of k points=    90  Methfessel-Paxton smearing, width (Ry)=  0.0200
                       cart. coord. in units 2pi/alat
        k(    1) = (   0.0500997   0.0867752   0.0536574), wk =   0.0066667
        k(    2) = (   0.0500997   0.0867752   0.1609722), wk =   0.0066667
        k(    3) = (   0.0500997   0.0867752   0.2682871), wk =   0.0066667
        k(    4) = (   0.0500997   0.2024754   0.0536574), wk =   0.0133333
        k(    5) = (   0.0500997   0.2024754   0.1609722), wk =   0.0133333
        k(    6) = (   0.0500997   0.2024754   0.2682871), wk =   0.0133333
        k(    7) = (   0.0500997   0.3181756   0.0536574), wk =   0.0133333
        k(    8) = (   0.0500997   0.3181756   0.1609722), wk =   0.0133333
        k(    9) = (   0.0500997   0.3181756   0.2682871), wk =   0.0133333
        k(   10) = (   0.0500997   0.4338758   0.0536574), wk =   0.0133333
        k(   11) = (   0.0500997   0.4338758   0.1609722), wk =   0.0133333
        k(   12) = (   0.0500997   0.4338758   0.2682871), wk =   0.0133333
        k(   13) = (   0.0500997   0.5495760   0.0536574), wk =   0.0133333
        k(   14) = (   0.0500997   0.5495760   0.1609722), wk =   0.0133333
        k(   15) = (   0.0500997   0.5495760   0.2682871), wk =   0.0133333
        k(   16) = (   0.0500997  -0.4917259   0.0536574), wk =   0.0133333
        k(   17) = (   0.0500997  -0.4917259   0.1609722), wk =   0.0133333
        k(   18) = (   0.0500997  -0.4917259   0.2682871), wk =   0.0133333
        k(   19) = (   0.0500997  -0.3760257   0.0536574), wk =   0.0133333
        k(   20) = (   0.0500997  -0.3760257   0.1609722), wk =   0.0133333
        k(   21) = (   0.0500997  -0.3760257   0.2682871), wk =   0.0133333
        k(   22) = (   0.0500997  -0.2603255   0.0536574), wk =   0.0133333
        k(   23) = (   0.0500997  -0.2603255   0.1609722), wk =   0.0133333
        k(   24) = (   0.0500997  -0.2603255   0.2682871), wk =   0.0133333
        k(   25) = (   0.0500997  -0.1446253   0.0536574), wk =   0.0133333
        k(   26) = (   0.0500997  -0.1446253   0.1609722), wk =   0.0133333
        k(   27) = (   0.0500997  -0.1446253   0.2682871), wk =   0.0133333
        k(   28) = (   0.0500997  -0.0289251   0.0536574), wk =   0.0066667
        k(   29) = (   0.0500997  -0.0289251   0.1609722), wk =   0.0066667
        k(   30) = (   0.0500997  -0.0289251   0.2682871), wk =   0.0066667
        k(   31) = (   0.1502990   0.2603255   0.0536574), wk =   0.0066667
        k(   32) = (   0.1502990   0.2603255   0.1609722), wk =   0.0066667
        k(   33) = (   0.1502990   0.2603255   0.2682871), wk =   0.0066667
        k(   34) = (   0.1502990   0.3760257   0.0536574), wk =   0.0133333
        k(   35) = (   0.1502990   0.3760257   0.1609722), wk =   0.0133333
        k(   36) = (   0.1502990   0.3760257   0.2682871), wk =   0.0133333
        k(   37) = (   0.1502990   0.4917259   0.0536574), wk =   0.0133333
        k(   38) = (   0.1502990   0.4917259   0.1609722), wk =   0.0133333
        k(   39) = (   0.1502990   0.4917259   0.2682871), wk =   0.0133333
        k(   40) = (   0.1502990   0.6074261   0.0536574), wk =   0.0133333
        k(   41) = (   0.1502990   0.6074261   0.1609722), wk =   0.0133333
        k(   42) = (   0.1502990   0.6074261   0.2682871), wk =   0.0133333
        k(   43) = (   0.1502990  -0.4338758   0.0536574), wk =   0.0133333
        k(   44) = (   0.1502990  -0.4338758   0.1609722), wk =   0.0133333
        k(   45) = (   0.1502990  -0.4338758   0.2682871), wk =   0.0133333
        k(   46) = (   0.1502990  -0.3181756   0.0536574), wk =   0.0133333
        k(   47) = (   0.1502990  -0.3181756   0.1609722), wk =   0.0133333
        k(   48) = (   0.1502990  -0.3181756   0.2682871), wk =   0.0133333
        k(   49) = (   0.1502990  -0.2024754   0.0536574), wk =   0.0133333
        k(   50) = (   0.1502990  -0.2024754   0.1609722), wk =   0.0133333
        k(   51) = (   0.1502990  -0.2024754   0.2682871), wk =   0.0133333
        k(   52) = (   0.1502990  -0.0867752   0.0536574), wk =   0.0066667
        k(   53) = (   0.1502990  -0.0867752   0.1609722), wk =   0.0066667
        k(   54) = (   0.1502990  -0.0867752   0.2682871), wk =   0.0066667
        k(   55) = (   0.2504983   0.4338758   0.0536574), wk =   0.0066667
        k(   56) = (   0.2504983   0.4338758   0.1609722), wk =   0.0066667
        k(   57) = (   0.2504983   0.4338758   0.2682871), wk =   0.0066667
        k(   58) = (   0.2504983   0.5495760   0.0536574), wk =   0.0133333
        k(   59) = (   0.2504983   0.5495760   0.1609722), wk =   0.0133333
        k(   60) = (   0.2504983   0.5495760   0.2682871), wk =   0.0133333
        k(   61) = (   0.2504983   0.6652762   0.0536574), wk =   0.0133333
        k(   62) = (   0.2504983   0.6652762   0.1609722), wk =   0.0133333
        k(   63) = (   0.2504983   0.6652762   0.2682871), wk =   0.0133333
        k(   64) = (   0.2504983  -0.3760257   0.0536574), wk =   0.0133333
        k(   65) = (   0.2504983  -0.3760257   0.1609722), wk =   0.0133333
        k(   66) = (   0.2504983  -0.3760257   0.2682871), wk =   0.0133333
        k(   67) = (   0.2504983  -0.2603255   0.0536574), wk =   0.0133333
        k(   68) = (   0.2504983  -0.2603255   0.1609722), wk =   0.0133333
        k(   69) = (   0.2504983  -0.2603255   0.2682871), wk =   0.0133333
        k(   70) = (   0.2504983  -0.1446253   0.0536574), wk =   0.0066667
        k(   71) = (   0.2504983  -0.1446253   0.1609722), wk =   0.0066667
        k(   72) = (   0.2504983  -0.1446253   0.2682871), wk =   0.0066667
        k(   73) = (   0.3506976   0.6074261   0.0536574), wk =   0.0066667
        k(   74) = (   0.3506976   0.6074261   0.1609722), wk =   0.0066667
        k(   75) = (   0.3506976   0.6074261   0.2682871), wk =   0.0066667
        k(   76) = (   0.3506976   0.7231263   0.0536574), wk =   0.0133333
        k(   77) = (   0.3506976   0.7231263   0.1609722), wk =   0.0133333
        k(   78) = (   0.3506976   0.7231263   0.2682871), wk =   0.0133333
        k(   79) = (   0.3506976  -0.3181756   0.0536574), wk =   0.0133333
        k(   80) = (   0.3506976  -0.3181756   0.1609722), wk =   0.0133333
        k(   81) = (   0.3506976  -0.3181756   0.2682871), wk =   0.0133333
        k(   82) = (   0.3506976  -0.2024754   0.0536574), wk =   0.0066667
        k(   83) = (   0.3506976  -0.2024754   0.1609722), wk =   0.0066667
        k(   84) = (   0.3506976  -0.2024754   0.2682871), wk =   0.0066667
        k(   85) = (   0.4508970   0.7809764   0.0536574), wk =   0.0066667
        k(   86) = (   0.4508970   0.7809764   0.1609722), wk =   0.0066667
        k(   87) = (   0.4508970   0.7809764   0.2682871), wk =   0.0066667
        k(   88) = (   0.4508970  -0.2603255   0.0536574), wk =   0.0066667
        k(   89) = (   0.4508970  -0.2603255   0.1609722), wk =   0.0066667
        k(   90) = (   0.4508970  -0.2603255   0.2682871), wk =   0.0066667

     Dense  grid:    30805 G-vectors     FFT dimensions: (  36,  36,  60)

     Smooth grid:    14077 G-vectors     FFT dimensions: (  27,  27,  48)

     Estimated max dynamical RAM per process >     102.52 MB

     Estimated total dynamical RAM >     205.04 MB
     Generating pointlists ...

     Check: negative core charge=   -0.000004

     Initial potential from superposition of free atoms

     starting charge   21.99183, renormalised to   22.00000
     Starting wfcs are   26 randomized atomic wfcs
     Checking if some PAW data can be deallocated... 

     total cpu time spent up to now is      686.5 secs

     Self-consistent Calculation

     iteration #  1     ecut=    38.00 Ry     beta= 0.70
     Davidson diagonalization with overlap
     ethr =  1.00E-06,  avg # of iterations =  8.3

     total cpu time spent up to now is      719.9 secs

     total energy              =    -565.19984880 Ry
     Harris-Foulkes estimate   =    -565.20520633 Ry
     estimated scf accuracy    <       0.01294110 Ry

     total magnetization       =    -0.00 Bohr mag/cell
     absolute magnetization    =     0.00 Bohr mag/cell

     iteration #  2     ecut=    38.00 Ry     beta= 0.70
     Davidson diagonalization with overlap
     ethr =  5.88E-05,  avg # of iterations =  2.0

     total cpu time spent up to now is      733.7 secs

     total energy              =    -565.20193232 Ry
     Harris-Foulkes estimate   =    -565.20205953 Ry
     estimated scf accuracy    <       0.00060368 Ry

     total magnetization       =    -0.00 Bohr mag/cell
     absolute magnetization    =     0.00 Bohr mag/cell

     iteration #  3     ecut=    38.00 Ry     beta= 0.70
     Davidson diagonalization with overlap
     ethr =  2.74E-06,  avg # of iterations =  2.0

     total cpu time spent up to now is      747.6 secs

     total energy              =    -565.20201803 Ry
     Harris-Foulkes estimate   =    -565.20200999 Ry
     estimated scf accuracy    <       0.00004877 Ry

     total magnetization       =    -0.00 Bohr mag/cell
     absolute magnetization    =     0.00 Bohr mag/cell

     iteration #  4     ecut=    38.00 Ry     beta= 0.70
     Davidson diagonalization with overlap
     ethr =  2.22E-07,  avg # of iterations =  1.6

     total cpu time spent up to now is      759.3 secs

     total energy              =    -565.20202145 Ry
     Harris-Foulkes estimate   =    -565.20202135 Ry
     estimated scf accuracy    <       0.00000022 Ry

     total magnetization       =    -0.00 Bohr mag/cell
     absolute magnetization    =     0.00 Bohr mag/cell

     iteration #  5     ecut=    38.00 Ry     beta= 0.70
     Davidson diagonalization with overlap
     ethr =  1.01E-09,  avg # of iterations =  4.1

     total cpu time spent up to now is      777.6 secs

     total energy              =    -565.20202175 Ry
     Harris-Foulkes estimate   =    -565.20202176 Ry
     estimated scf accuracy    <       0.00000004 Ry

     total magnetization       =    -0.00 Bohr mag/cell
     absolute magnetization    =     0.00 Bohr mag/cell

     iteration #  6     ecut=    38.00 Ry     beta= 0.70
     Davidson diagonalization with overlap
     ethr =  1.77E-10,  avg # of iterations =  2.8

     Magnetic moment per site:
     atom:    1    charge:    9.5049    magn:   -0.0000    constr:    0.0000
     atom:    2    charge:    9.5049    magn:   -0.0000    constr:    0.0000

     total cpu time spent up to now is      791.3 secs

     End of self-consistent calculation

     Number of k-points >= 100: set verbosity='high' to print the bands.

     the Fermi energy is     9.5230 ev

!    total energy              =    -565.20202175 Ry
     Harris-Foulkes estimate   =    -565.20202175 Ry
     estimated scf accuracy    <          4.4E-09 Ry

     total all-electron energy =    -13541.448569 Ry

     The total energy is the sum of the following terms:

     one-electron contribution =     -38.47588093 Ry
     hartree contribution      =      26.37330201 Ry
     xc contribution           =     -35.67653313 Ry
     ewald contribution        =    -115.49094997 Ry
     one-center paw contrib.   =    -401.93084950 Ry
     smearing contrib. (-TS)   =      -0.00111023 Ry

     total magnetization       =    -0.00 Bohr mag/cell
     absolute magnetization    =     0.00 Bohr mag/cell

     convergence has been achieved in   6 iterations

     Forces acting on atoms (cartesian axes, Ry/au):

     atom    1 type  1   force =     0.00000000    0.00000000    0.00000000
     atom    2 type  1   force =     0.00000000    0.00000000    0.00000000

     Total force =     0.000000     Total SCF correction =     0.000000


     Computing stress (Cartesian axis) and pressure

          total   stress  (Ry/bohr**3)                   (kbar)     P=   -0.34
  -0.00000213  -0.00000000  -0.00000000         -0.31     -0.00     -0.00
  -0.00000000  -0.00000213  -0.00000000         -0.00     -0.31     -0.00
  -0.00000000  -0.00000000  -0.00000265         -0.00     -0.00     -0.39


     Writing output data file pw.save/

     init_run     :     20.58s CPU     18.60s WALL (       2 calls)
     electrons    :    819.98s CPU    709.47s WALL (       8 calls)
     update_pot   :     13.47s CPU     13.69s WALL (       6 calls)
     forces       :     10.48s CPU     11.08s WALL (       8 calls)
     stress       :     33.38s CPU     34.52s WALL (       8 calls)

     Called by init_run:
     wfcinit      :     16.00s CPU     13.89s WALL (       2 calls)
     potinit      :      1.95s CPU      2.02s WALL (       2 calls)
     hinit0       :      2.22s CPU      2.12s WALL (       2 calls)

     Called by electrons:
     c_bands      :    714.23s CPU    598.50s WALL (      46 calls)
     sum_band     :     65.78s CPU     66.56s WALL (      46 calls)
     v_of_rho     :      7.17s CPU      6.58s WALL (      48 calls)
     newd         :      3.22s CPU      6.44s WALL (      48 calls)
     PAW_pot      :     40.36s CPU     43.16s WALL (      54 calls)
     mix_rho      :      0.47s CPU      0.37s WALL (      46 calls)

     Called by c_bands:
     init_us_2    :     12.55s CPU     10.47s WALL (   20880 calls)
     cegterg      :    678.19s CPU    570.27s WALL (    8280 calls)

     Called by sum_band:
     sum_band:bec :      0.09s CPU      0.18s WALL (    9360 calls)
     addusdens    :      9.27s CPU      9.23s WALL (      46 calls)

     Called by *egterg:
     h_psi        :    545.58s CPU    439.80s WALL (   32852 calls)
     s_psi        :     13.45s CPU     10.94s WALL (   32852 calls)
     g_psi        :      2.59s CPU      2.06s WALL (   24212 calls)
     cdiaghg      :     72.39s CPU     83.91s WALL (   30332 calls)

     Called by h_psi:
     h_psi:pot    :    543.88s CPU    438.14s WALL (   32852 calls)
     h_psi:calbec :     16.91s CPU     13.47s WALL (   32852 calls)
     vloc_psi     :    511.48s CPU    411.73s WALL (   32852 calls)
     add_vuspsi   :     14.69s CPU     12.04s WALL (   32852 calls)

     General routines
     calbec       :     22.55s CPU     18.52s WALL (   49412 calls)
     fft          :      2.45s CPU      2.30s WALL (    1522 calls)
     ffts         :      0.14s CPU      0.10s WALL (     188 calls)
     fftw         :    511.28s CPU    418.15s WALL (  831854 calls)
     interpolate  :      0.20s CPU      0.19s WALL (      96 calls)

     Parallel routines
     fft_scatt_xy :     52.91s CPU     46.83s WALL (  833564 calls)
     fft_scatt_yz :     69.42s CPU     61.61s WALL (  833564 calls)

     PWSCF        :  15m 4.83s CPU  13m15.60s WALL


   This run was terminated on:  11:42:21   6Nov2020            

=------------------------------------------------------------------------------=
   JOB DONE.
=------------------------------------------------------------------------------=
